# vtk DataFile Version 4.0
vtk output
ASCII
DATASET STRUCTURED_GRID
DIMENSIONS 50 1 50
POINTS 2500 float
0 0 0 0.0204082 0 0 0.0408163 0 0 
0.0612245 0 0 0.0816327 0 0 0.102041 0 0 
0.122449 0 0 0.142857 0 0 0.163265 0 0 
0.183673 0 0 0.204082 0 0 0.22449 0 0 
0.244898 0 0 0.265306 0 0 0.285714 0 0 
0.306122 0 0 0.326531 0 0 0.346939 0 0 
0.367347 0 0 0.387755 0 0 0.408163 0 0 
0.428571 0 0 0.44898 0 0 0.469388 0 0 
0.489796 0 0 0.510204 0 0 0.530612 0 0 
0.55102 0 0 0.571429 0 0 0.591837 0 0 
0.612245 0 0 0.632653 0 0 0.653061 0 0 
0.673469 0 0 0.693878 0 0 0.714286 0 0 
0.734694 0 0 0.755102 0 0 0.77551 0 0 
0.795918 0 0 0.816327 0 0 0.836735 0 0 
0.857143 0 0 0.877551 0 0 0.897959 0 0 
0.918367 0 0 0.938776 0 0 0.959184 0 0 
0.979592 0 0 1 0 0 0 0.0204082 0 
0.0204082 0.0196702 0 0.0408163 0.0190473 0 0.0612245 0.0185498 0 
0.0816327 0.0181881 0 0.102041 0.0179146 0 0.122449 0.0177464 0 
0.142857 0.0176658 0 0.163265 0.0176492 0 0.183673 0.0177141 0 
0.204082 0.0178303 0 0.22449 0.0179913 0 0.244898 0.0182033 0 
0.265306 0.0184427 0 0.285714 0.0187098 0 0.306122 0.0189984 0 
0.326531 0.0192983 0 0.346939 0.0196073 0 0.367347 0.0199178 0 
0.387755 0.0202264 0 0.408163 0.0205256 0 0.428571 0.0208141 0 
0.44898 0.0210886 0 0.469388 0.0213405 0 0.489796 0.0215741 0 
0.510204 0.0217821 0 0.530612 0.0219619 0 0.55102 0.0221185 0 
0.571429 0.0222403 0 0.591837 0.0223339 0 0.612245 0.0224014 0 
0.632653 0.0224305 0 0.653061 0.0224346 0 0.673469 0.02241 0 
0.693878 0.022354 0 0.714286 0.0222763 0 0.734694 0.0221719 0 
0.755102 0.0220464 0 0.77551 0.0219054 0 0.795918 0.0217458 0 
0.816327 0.0215773 0 0.836735 0.021402 0 0.857143 0.0212246 0 
0.877551 0.0210503 0 0.897959 0.0208844 0 0.918367 0.0207352 0 
0.938776 0.0206033 0 0.959184 0.0205035 0 0.979592 0.0204386 0 
1 0.0204082 0 0 0.0408163 0 0.0204082 0.0393403 0 
0.0408163 0.0380947 0 0.0612245 0.0370996 0 0.0816327 0.0363762 0 
0.102041 0.0358292 0 0.122449 0.0354927 0 0.142857 0.0353316 0 
0.163265 0.0352985 0 0.183673 0.0354282 0 0.204082 0.0356605 0 
0.22449 0.0359825 0 0.244898 0.0364067 0 0.265306 0.0368854 0 
0.285714 0.0374196 0 0.306122 0.0379968 0 0.326531 0.0385966 0 
0.346939 0.0392147 0 0.367347 0.0398356 0 0.387755 0.0404529 0 
0.408163 0.0410513 0 0.428571 0.0416282 0 0.44898 0.0421773 0 
0.469388 0.042681 0 0.489796 0.0431482 0 0.510204 0.0435642 0 
0.530612 0.0439238 0 0.55102 0.044237 0 0.571429 0.0444806 0 
0.591837 0.0446678 0 0.612245 0.0448029 0 0.632653 0.0448609 0 
0.653061 0.0448693 0 0.673469 0.0448201 0 0.693878 0.044708 0 
0.714286 0.0445527 0 0.734694 0.0443439 0 0.755102 0.0440928 0 
0.77551 0.0438107 0 0.795918 0.0434917 0 0.816327 0.0431546 0 
0.836735 0.042804 0 0.857143 0.0424492 0 0.877551 0.0421006 0 
0.897959 0.0417688 0 0.918367 0.0414703 0 0.938776 0.0412066 0 
0.959184 0.041007 0 0.979592 0.0408772 0 1 0.0408163 0 
0 0.0612245 0 0.0204082 0.0590105 0 0.0408163 0.057142 0 
0.0612245 0.0556493 0 0.0816327 0.0545643 0 0.102041 0.0537438 0 
0.122449 0.0532391 0 0.142857 0.0529973 0 0.163265 0.0529477 0 
0.183673 0.0531424 0 0.204082 0.0534908 0 0.22449 0.0539738 0 
0.244898 0.05461 0 0.265306 0.055328 0 0.285714 0.0561294 0 
0.306122 0.0569952 0 0.326531 0.0578949 0 0.346939 0.058822 0 
0.367347 0.0597533 0 0.387755 0.0606793 0 0.408163 0.0615769 0 
0.428571 0.0624424 0 0.44898 0.0632659 0 0.469388 0.0640215 0 
0.489796 0.0647223 0 0.510204 0.0653464 0 0.530612 0.0658858 0 
0.55102 0.0663555 0 0.571429 0.0667209 0 0.591837 0.0670018 0 
0.612245 0.0672043 0 0.632653 0.0672914 0 0.653061 0.0673039 0 
0.673469 0.0672301 0 0.693878 0.067062 0 0.714286 0.066829 0 
0.734694 0.0665158 0 0.755102 0.0661392 0 0.77551 0.0657161 0 
0.795918 0.0652375 0 0.816327 0.0647318 0 0.836735 0.064206 0 
0.857143 0.0636738 0 0.877551 0.0631509 0 0.897959 0.0626532 0 
0.918367 0.0622055 0 0.938776 0.0618099 0 0.959184 0.0615106 0 
0.979592 0.0613158 0 1 0.0612245 0 0 0.0816327 0 
0.0204082 0.0786807 0 0.0408163 0.0761893 0 0.0612245 0.0741991 0 
0.0816327 0.0727524 0 0.102041 0.0716584 0 0.122449 0.0709855 0 
0.142857 0.0706631 0 0.163265 0.0705969 0 0.183673 0.0708565 0 
0.204082 0.071321 0 0.22449 0.0719651 0 0.244898 0.0728133 0 
0.265306 0.0737707 0 0.285714 0.0748392 0 0.306122 0.0759935 0 
0.326531 0.0771932 0 0.346939 0.0784294 0 0.367347 0.0796711 0 
0.387755 0.0809058 0 0.408163 0.0821025 0 0.428571 0.0832565 0 
0.44898 0.0843545 0 0.469388 0.085362 0 0.489796 0.0862963 0 
0.510204 0.0871285 0 0.530612 0.0878477 0 0.55102 0.088474 0 
0.571429 0.0889612 0 0.591837 0.0893357 0 0.612245 0.0896058 0 
0.632653 0.0897218 0 0.653061 0.0897386 0 0.673469 0.0896402 0 
0.693878 0.089416 0 0.714286 0.0891054 0 0.734694 0.0886877 0 
0.755102 0.0881856 0 0.77551 0.0876214 0 0.795918 0.0869833 0 
0.816327 0.0863091 0 0.836735 0.085608 0 0.857143 0.0848984 0 
0.877551 0.0842013 0 0.897959 0.0835376 0 0.918367 0.0829407 0 
0.938776 0.0824132 0 0.959184 0.0820141 0 0.979592 0.0817544 0 
1 0.0816327 0 0 0.102041 0 0.0204082 0.0983508 0 
0.0408163 0.0952367 0 0.0612245 0.0927489 0 0.0816327 0.0909405 0 
0.102041 0.0895729 0 0.122449 0.0887318 0 0.142857 0.0883289 0 
0.163265 0.0882462 0 0.183673 0.0885706 0 0.204082 0.0891513 0 
0.22449 0.0899563 0 0.244898 0.0910166 0 0.265306 0.0922134 0 
0.285714 0.093549 0 0.306122 0.0949919 0 0.326531 0.0964915 0 
0.346939 0.0980367 0 0.367347 0.0995889 0 0.387755 0.101132 0 
0.408163 0.102628 0 0.428571 0.104071 0 0.44898 0.105443 0 
0.469388 0.106703 0 0.489796 0.10787 0 0.510204 0.108911 0 
0.530612 0.10981 0 0.55102 0.110592 0 0.571429 0.111201 0 
0.591837 0.11167 0 0.612245 0.112007 0 0.632653 0.112152 0 
0.653061 0.112173 0 0.673469 0.11205 0 0.693878 0.11177 0 
0.714286 0.111382 0 0.734694 0.11086 0 0.755102 0.110232 0 
0.77551 0.109527 0 0.795918 0.108729 0 0.816327 0.107886 0 
0.836735 0.10701 0 0.857143 0.106123 0 0.877551 0.105252 0 
0.897959 0.104422 0 0.918367 0.103676 0 0.938776 0.103017 0 
0.959184 0.102518 0 0.979592 0.102193 0 1 0.102041 0 
0 0.122449 0 0.0204082 0.118021 0 0.0408163 0.114284 0 
0.0612245 0.111299 0 0.0816327 0.109129 0 0.102041 0.107488 0 
0.122449 0.106478 0 0.142857 0.105995 0 0.163265 0.105895 0 
0.183673 0.106285 0 0.204082 0.106982 0 0.22449 0.107948 0 
0.244898 0.10922 0 0.265306 0.110656 0 0.285714 0.112259 0 
0.306122 0.11399 0 0.326531 0.11579 0 0.346939 0.117644 0 
0.367347 0.119507 0 0.387755 0.121359 0 0.408163 0.123154 0 
0.428571 0.124885 0 0.44898 0.126532 0 0.469388 0.128043 0 
0.489796 0.129445 0 0.510204 0.130693 0 0.530612 0.131772 0 
0.55102 0.132711 0 0.571429 0.133442 0 0.591837 0.134004 0 
0.612245 0.134409 0 0.632653 0.134583 0 0.653061 0.134608 0 
0.673469 0.13446 0 0.693878 0.134124 0 0.714286 0.133658 0 
0.734694 0.133032 0 0.755102 0.132278 0 0.77551 0.131432 0 
0.795918 0.130475 0 0.816327 0.129464 0 0.836735 0.128412 0 
0.857143 0.127348 0 0.877551 0.126302 0 0.897959 0.125306 0 
0.918367 0.124411 0 0.938776 0.12362 0 0.959184 0.123021 0 
0.979592 0.122632 0 1 0.122449 0 0 0.142857 0 
0.0204082 0.137691 0 0.0408163 0.133331 0 0.0612245 0.129848 0 
0.0816327 0.127317 0 0.102041 0.125402 0 0.122449 0.124225 0 
0.142857 0.12366 0 0.163265 0.123545 0 0.183673 0.123999 0 
0.204082 0.124812 0 0.22449 0.125939 0 0.244898 0.127423 0 
0.265306 0.129099 0 0.285714 0.130969 0 0.306122 0.132989 0 
0.326531 0.135088 0 0.346939 0.137251 0 0.367347 0.139424 0 
0.387755 0.141585 0 0.408163 0.143679 0 0.428571 0.145699 0 
0.44898 0.14762 0 0.469388 0.149384 0 0.489796 0.151019 0 
0.510204 0.152475 0 0.530612 0.153733 0 0.55102 0.154829 0 
0.571429 0.155682 0 0.591837 0.156337 0 0.612245 0.15681 0 
0.632653 0.157013 0 0.653061 0.157042 0 0.673469 0.15687 0 
0.693878 0.156478 0 0.714286 0.155934 0 0.734694 0.155204 0 
0.755102 0.154325 0 0.77551 0.153337 0 0.795918 0.152221 0 
0.816327 0.151041 0 0.836735 0.149814 0 0.857143 0.148572 0 
0.877551 0.147352 0 0.897959 0.146191 0 0.918367 0.145146 0 
0.938776 0.144223 0 0.959184 0.143525 0 0.979592 0.14307 0 
1 0.142857 0 0 0.163265 0 0.0204082 0.157361 0 
0.0408163 0.152379 0 0.0612245 0.148398 0 0.0816327 0.145505 0 
0.102041 0.143317 0 0.122449 0.141971 0 0.142857 0.141326 0 
0.163265 0.141194 0 0.183673 0.141713 0 0.204082 0.142642 0 
0.22449 0.14393 0 0.244898 0.145627 0 0.265306 0.147541 0 
0.285714 0.149678 0 0.306122 0.151987 0 0.326531 0.154386 0 
0.346939 0.156859 0 0.367347 0.159342 0 0.387755 0.161812 0 
0.408163 0.164205 0 0.428571 0.166513 0 0.44898 0.168709 0 
0.469388 0.170724 0 0.489796 0.172593 0 0.510204 0.174257 0 
0.530612 0.175695 0 0.55102 0.176948 0 0.571429 0.177922 0 
0.591837 0.178671 0 0.612245 0.179212 0 0.632653 0.179444 0 
0.653061 0.179477 0 0.673469 0.17928 0 0.693878 0.178832 0 
0.714286 0.178211 0 0.734694 0.177375 0 0.755102 0.176371 0 
0.77551 0.175243 0 0.795918 0.173967 0 0.816327 0.172618 0 
0.836735 0.171216 0 0.857143 0.169797 0 0.877551 0.168403 0 
0.897959 0.167075 0 0.918367 0.165881 0 0.938776 0.164826 0 
0.959184 0.164028 0 0.979592 0.163509 0 1 0.163265 0 
0 0.183673 0 0.0204082 0.177031 0 0.0408163 0.171426 0 
0.0612245 0.166948 0 0.0816327 0.163693 0 0.102041 0.161231 0 
0.122449 0.159717 0 0.142857 0.158992 0 0.163265 0.158843 0 
0.183673 0.159427 0 0.204082 0.160472 0 0.22449 0.161921 0 
0.244898 0.16383 0 0.265306 0.165984 0 0.285714 0.168388 0 
0.306122 0.170985 0 0.326531 0.173685 0 0.346939 0.176466 0 
0.367347 0.17926 0 0.387755 0.182038 0 0.408163 0.184731 0 
0.428571 0.187327 0 0.44898 0.189798 0 0.469388 0.192065 0 
0.489796 0.194167 0 0.510204 0.196039 0 0.530612 0.197657 0 
0.55102 0.199066 0 0.571429 0.200163 0 0.591837 0.201005 0 
0.612245 0.201613 0 0.632653 0.201874 0 0.653061 0.201912 0 
0.673469 0.20169 0 0.693878 0.201186 0 0.714286 0.200487 0 
0.734694 0.199547 0 0.755102 0.198418 0 0.77551 0.197148 0 
0.795918 0.195713 0 0.816327 0.194195 0 0.836735 0.192618 0 
0.857143 0.191021 0 0.877551 0.189453 0 0.897959 0.18796 0 
0.918367 0.186617 0 0.938776 0.18543 0 0.959184 0.184532 0 
0.979592 0.183947 0 1 0.183673 0 0 0.204082 0 
[...]
CELL_DATA 2401
FIELD FieldData 1
Weights 1 2401 double
0.00040896251264 0.00039507649334 0.00038364404981 0.00037487626296 0.00036839483021 0.00036388728502 0.00036134855586 0.00036035711819 0.00036085067829 
0.00036269787155 0.00036552561389 0.00036933271029 0.00037393872186 0.00037910733403 0.00038477720173 0.0003907822718 0.00039699667081 0.0004033173735 
0.0004096347786 0.0004158378772 0.0004218339201 0.00042757882818 0.00043295079429 0.00043790382645 0.00044241003808 0.00044636754892 0.00044979990812 
0.00045264176262 0.00045483872197 0.00045648307573 0.00045746816746 0.00045780694064 0.0004575986666 0.00045677707303 0.00045541135204 0.00045355353545 
0.00045120726891 0.00044848712405 0.0004454200712 0.0004420736204 0.00043856390576 0.00043496516301 0.00043137645572 0.00042790513305 0.00042468942978 
0.00042182228464 0.00041945720503 0.00041777652971 0.00041680352616 0.00040896251264 0.00039507649334 0.00038364404981 0.00037487626296 0.00036839483021 
0.00036388728502 0.00036134855586 0.00036035711819 0.00036085067829 0.00036269787155 0.00036552561389 0.00036933271029 0.00037393872186 0.00037910733403 
0.00038477720173 0.0003907822718 0.00039699667081 0.0004033173735 0.0004096347786 0.0004158378772 0.0004218339201 0.00042757882818 0.00043295079429 
0.00043790382645 0.00044241003808 0.00044636754892 0.00044979990812 0.00045264176262 0.00045483872197 0.00045648307573 0.00045746816746 0.00045780694064 
0.0004575986666 0.00045677707303 0.00045541135204 0.00045355353545 0.00045120726891 0.00044848712405 0.0004454200712 0.0004420736204 0.00043856390576 
0.00043496516301 0.00043137645572 0.00042790513305 0.00042468942978 0.00042182228464 0.00041945720503 0.00041777652971 0.00041680352616 0.00040896255065 
0.00039507653135 0.00038364406882 0.00037487622494 0.0003683948112 0.00036388730403 0.00036134857487 0.00036035711819 0.00036085064028 0.00036269785255 
0.00036552561389 0.00036933271029 0.00037393872186 0.00037910735304 0.00038477722074 0.00039078223378 0.00039699663279 0.0004033173735 0.0004096347786 
0.00041583791522 0.00042183399613 0.00042757884719 0.00043295073727 0.00043790378843 0.00044241005708 0.00044636752992 0.00044979988912 0.00045264178162 
0.00045483872197 0.00045648305673 0.00045746809143 0.00045780686461 0.00045759862859 0.00045677709204 0.00045541135204 0.00045355349743 0.00045120728792 
0.00044848714306 0.00044542009021 0.0004420736394 0.00043856388675 0.00043496518201 0.00043137651274 0.00042790515205 0.00042468942978 0.00042182230364 
0.00041945726205 0.00041777654872 0.00041680352616 0.00040896247463 0.00039507645532 0.0003836440308 0.00037487630097 0.00036839484921 0.00036388726602 
0.00036134853685 0.00036035711819 0.0003608507163 0.00036269789056 0.00036552561389 0.00036933271029 0.00037393872186 0.00037910731503 0.00038477718273 
0.00039078230981 0.00039699670882 0.0004033173735 0.0004096347786 0.00041583783919 0.00042183384408 0.00042757880917 0.00043295085131 0.00043790386446 
0.00044241001907 0.00044636756793 0.00044979992713 0.00045264174361 0.00045483872197 0.00045648309474 0.00045746824349 0.00045780701666 0.00045759870461 
0.00045677705403 0.00045541135204 0.00045355357346 0.0004512072499 0.00044848710504 0.0004454200522 0.00044207360139 0.00043856392476 0.000434965144 
0.0004313763987 0.00042790511404 0.00042468942978 0.00042182226563 0.00041945714801 0.00041777651071 0.00041680352616 0.00040896258866 0.00039507653135 
0.0003836440308 0.00037487614892 0.0003683948112 0.00036388730403 0.00036134853685 0.00036035711819 0.00036085064028 0.00036269785255 0.00036552561389 
0.00036933267228 0.00037393868385 0.00037910735304 0.00038477722074 0.00039078223378 0.00039699667081 0.0004033173735 0.0004096347786 0.00041583799124 
0.00042183403414 0.0004275788852 0.00043295077528 0.00043790378843 0.0004424100951 0.00044636756793 0.00044979992713 0.00045264189566 0.000454838798 
0.00045648309474 0.00045746816746 0.00045780686461 0.00045759855256 0.00045677705403 0.00045541135204 0.00045355349743 0.0004512072499 0.00044848702902 
0.0004454200522 0.00044207375344 0.00043856400079 0.00043496522003 0.00043137647473 0.00042790511404 0.00042468942978 0.00042182234165 0.00041945730007 
0.00041777651071 0.00041680352616 0.00040896251264 0.00039507653135 0.00038364410683 0.00037487630097 0.0003683948112 0.00036388730403 0.00036134861288 
0.00036035711819 0.00036085064028 0.00036269785255 0.00036552561389 0.0003693327483 0.00037393875988 0.00037910735304 0.00038477722074 0.00039078223378 
0.00039699659478 0.0004033173735 0.0004096347786 0.00041583783919 0.00042183395812 0.00042757880917 0.00043295069926 0.00043790378843 0.00044241001907 
0.0004463674919 0.0004497998511 0.00045264166758 0.00045483864595 0.00045648301871 0.00045746801541 0.00045780686461 0.00045759870461 0.00045677713005 
0.00045541135204 0.00045355349743 0.00045120732593 0.0004484872571 0.00044542012822 0.00044207352536 0.00043856377271 0.000434965144 0.00043137655076 
0.00042790519007 0.00042468942978 0.00042182226563 0.00041945722404 0.00041777658673 0.00041680352616 0.00040896258866 0.00039507645532 0.00038364395478 
0.00037487622494 0.00036839488723 0.00036388730403 0.00036134846083 0.00036035711819 0.00036085079233 0.00036269792857 0.00036552553787 0.00036933259625 
0.00037393875988 0.00037910742907 0.00038477722074 0.00039078230981 0.00039699674683 0.0004033173735 0.00040963470257 0.00041583783919 0.00042183395812 
0.0004275788852 0.00043295092734 0.00043790401651 0.0004424100951 0.00044636756793 0.00044980000316 0.00045264181964 0.00045483872197 0.00045648317077 
0.00045746831951 0.00045780694064 0.00045759862859 0.00045677705403 0.00045541135204 0.00045355357346 0.0004512072499 0.00044848702902 0.00044541997617 
0.00044207367742 0.00043856407682 0.00043496529605 0.0004313763987 0.00042790503801 0.00042468942978 0.00042182234165 0.00041945730007 0.00041777651071 
0.00041680352616 0.00040896236059 0.00039507645532 0.00038364410683 0.000374876377 0.0003683948112 0.000363887228 0.00036134861288 0.00036035711819 
0.00036085064028 0.00036269785255 0.00036552568992 0.00036933282433 0.00037393868385 0.00037910720099 0.00038477714471 0.00039078230981 0.00039699667081 
0.0004033173735 0.00040963485463 0.00041583783919 0.00042183373004 0.00042757873315 0.00043295077528 0.00043790371241 0.00044240994304 0.00044636756793 
0.0004497998511 0.00045264166758 0.00045483872197 0.00045648301871 0.00045746816746 0.00045780709269 0.00045759878064 0.00045677705403 0.00045541135204 
0.00045355357346 0.0004512072499 0.00044848718107 0.00044542012822 0.00044207352536 0.00043856377271 0.00043496499195 0.0004313763987 0.00042790519007 
0.00042468942978 0.0004218221896 0.00041945699596 0.00041777651071 0.00041680352616 0.00040896266469 0.00039507660738 0.00038364410683 0.00037487622494 
0.0003683948112 0.00036388738005 0.00036134853685 0.00036035704216 0.00036085056425 0.0003626977005 0.00036552546184 0.00036933267228 0.0003739388359 
0.00037910750509 0.00038477729677 0.00039078215776 0.00039699651875 0.0004033173735 0.00040963485463 0.00041583799124 0.00042183403414 0.0004275788852 
0.00043295077528 0.00043790386446 0.00044241024715 0.00044636771998 0.00044980000316 0.00045264197169 0.00045483887403 0.00045648317077 0.00045746816746 
0.00045780678859 0.00045759847653 0.00045677690197 0.00045541119999 0.00045355342141 0.0004512072499 0.00044848702902 0.00044542012822 0.00044207382947 
0.00043856392476 0.000434965144 0.0004313763987 0.00042790503801 0.00042468942978 0.00042182234165 0.00041945730007 0.00041777651071 0.00041680352616 
0.00040896251264 0.00039507645532 0.00038364395478 0.00037487607289 0.0003683948112 0.000363887228 0.00036134853685 0.00036035719421 0.0003608507163 
0.0003626980046 0.00036552576595 0.00036933267228 0.0003739385318 0.00037910720099 0.00038477714471 0.00039078230981 0.00039699682286 0.0004033173735 
0.00040963470257 0.00041583799124 0.00042183403414 0.0004275788852 0.00043295077528 0.00043790371241 0.00044240994304 0.00044636741588 0.0004497998511 
0.00045264181964 0.00045483872197 0.00045648301871 0.00045746816746 0.00045780694064 0.00045759862859 0.00045677720608 0.00045541150409 0.00045355357346 
0.0004512072499 0.00044848702902 0.00044541997617 0.00044207367742 0.00043856407682 0.00043496529605 0.00043137655076 0.00042790519007 0.00042468942978 
0.00042182234165 0.00041945730007 0.00041777651071 0.00041680352616 0.00040896236059 0.00039507645532 0.00038364410683 0.000374876377 0.0003683948112 
0.000363887228 0.00036134853685 0.00036035704216 0.0003608507163 0.00036269785255 0.00036552546184 0.00036933267228 0.0003739388359 0.00037910735304 
0.00038477714471 0.00039078230981 0.00039699667081 0.0004033173735 0.00040963485463 0.00041583783919 0.00042183388209 0.0004275788852 0.00043295092734 
0.00043790401651 0.0004424100951 0.00044636756793 0.00044980000316 0.00045264181964 0.00045483872197 0.00045648301871 0.00045746801541 0.00045780694064 
0.00045759878064 0.00045677705403 0.00045541135204 0.00045355357346 0.0004512072499 0.00044848718107 0.00044542012822 0.00044207352536 0.00043856377271 
0.000434965144 0.00043137655076 0.00042790519007 0.00042468942978 0.0004218221896 0.00041945714801 0.00041777666276 0.00041680352616 0.00040896266469 
0.00039507660738 0.00038364410683 0.00037487622494 0.0003683948112 0.00036388738005 0.00036134868891 0.00036035719421 0.00036085056425 0.00036269785255 
0.00036552576595 0.00036933282433 0.00037393868385 0.00037910735304 0.00038477729677 0.00039078215776 0.00039699651875 0.0004033173735 0.00040963470257 
0.00041583783919 0.00042183403414 0.00042757873315 0.00043295047118 0.00043790356035 0.00044240994304 0.00044636741588 0.00044979969905 0.00045264151553 
0.00045483856992 0.00045648301871 0.00045746801541 0.00045780678859 0.00045759862859 0.00045677720608 0.00045541135204 0.00045355342141 0.00045120740196 
0.00044848733312 0.00044542012822 0.00044207352536 0.00043856377271 0.000434965144 0.00043137655076 0.00042790519007 0.00042468942978 0.00042182234165 
0.00041945730007 0.00041777651071 0.00041680352616 0.00040896251264 0.00039507645532 0.00038364380272 0.00037487622494 0.0003683948112 0.000363887228 
0.00036134853685 0.00036035704216 0.0003608507163 0.00036269785255 0.00036552546184 0.00036933267228 0.0003739388359 0.00037910735304 0.00038477714471 
0.00039078246186 0.00039699697491 0.0004033173735 0.00040963485463 0.00041583799124 0.00042183388209 0.0004275788852 0.00043295092734 0.00043790386446 
0.0004424100951 0.00044636771998 0.0004497998511 0.00045264181964 0.00045483887403 0.00045648317077 0.00045746847157 0.00045780724474 0.00045759862859 
0.00045677674992 0.00045541119999 0.00045355372551 0.0004512072499 0.00044848672491 0.00044541982412 0.00044207382947 0.00043856407682 0.00043496499195 
0.00043137624665 0.00042790488596 0.00042468927773 0.0004218221896 0.00041945714801 0.00041777666276 0.00041680352616 0.00040896266469 0.00039507645532 
0.00038364410683 0.00037487622494 0.00036839496325 0.00036388738005 0.0003613483848 0.00036035719421 0.00036085086836 0.0003626980046 0.00036552561389 
0.00036933252022 0.00037393868385 0.00037910750509 0.00038477729677 0.00039078215776 0.00039699651875 0.0004033173735 0.00040963455052 0.00041583768714 
0.00042183403414 0.0004275788852 0.00043295092734 0.00043790416856 0.0004424100951 0.00044636741588 0.00044980015521 0.00045264181964 0.00045483856992 
0.00045648317077 0.00045746816746 0.00045780663653 0.00045759862859 0.00045677735813 0.00045541150409 0.00045355342141 0.0004512072499 0.00044848733312 
0.00044542012822 0.00044207352536 0.00043856407682 0.00043496560016 0.00043137655076 0.00042790519007 0.00042468958183 0.00042182249371 0.00041945745212 
0.00041777635865 0.00041680352616 0.00040896236059 0.00039507660738 0.00038364410683 0.00037487607289 0.00036839450709 0.000363887228 0.00036134884096 
0.00036035719421 0.0003608507163 0.0003626980046 0.00036552576595 0.00036933297638 0.00037393868385 0.00037910689688 0.00038477699266 0.00039078215776 
0.00039699651875 0.0004033173735 0.00040963485463 0.00041583799124 0.00042183403414 0.0004275788852 0.00043295062323 0.00043790356035 0.0004424100951 
0.00044636771998 0.0004497998511 0.00045264181964 0.00045483887403 0.00045648286666 0.00045746786336 0.00045780694064 0.00045759862859 0.00045677674992 
0.00045541119999 0.00045355372551 0.0004512072499 0.00044848702902 0.00044542012822 0.00044207352536 0.00043856377271 0.00043496499195 0.00043137624665 
0.00042790488596 0.00042468927773 0.0004218221896 0.00041945714801 0.00041777666276 0.00041680352616 0.00040896236059 0.00039507630327 0.00038364410683 
0.0003748766811 0.00036839511531 0.000363887228 0.0003613483848 0.00036035704216 0.00036085056425 0.0003626977005 0.00036552561389 0.00036933267228 
0.00037393868385 0.00037910750509 0.00038477729677 0.00039078246186 0.00039699682286 0.0004033173735 0.00040963485463 0.00041583768714 0.00042183342593 
0.0004275785811 0.00043295092734 0.00043790386446 0.00044240979099 0.00044636741588 0.0004497998511 0.00045264151553 0.00045483856992 0.00045648317077 
0.00045746847157 0.00045780724474 0.00045759893269 0.00045677735813 0.00045541150409 0.00045355342141 0.0004512072499 0.00044848733312 0.00044542012822 
0.00044207352536 0.00043856377271 0.00043496499195 0.00043137655076 0.00042790549417 0.00042468958183 0.0004218221896 0.00041945684391 0.00041777635865 
0.00041680352616 0.00040896266469 0.00039507630327 0.00038364380272 0.00037487607289 0.0003683948112 0.000363887228 0.0003613483848 0.00036035704216 
0.00036085056425 0.0003626977005 0.00036552561389 0.00036933267228 0.00037393868385 0.00037910750509 0.00038477729677 0.00039078215776 0.00039699651875 
0.0004033173735 0.00040963485463 0.00041583799124 0.00042183403414 0.0004275788852 0.00043295092734 0.00043790386446 0.0004424100951 0.00044636771998 
0.00044980015521 0.00045264212374 0.00045483887403 0.00045648317077 0.00045746816746 0.00045780663653 0.00045759832448 0.00045677705403 0.00045541119999 
0.00045355342141 0.0004512072499 0.00044848672491 0.00044541982412 0.00044207382947 0.00043856407682 0.00043496529605 0.00043137655076 0.00042790488596 
0.00042468927773 0.00042182249371 0.00041945745212 0.00041777635865 0.00041680352616 0.00040896266469 0.00039507691148 0.00038364441094 0.000374876377 
0.0003683948112 0.00036388753211 0.00036134868891 0.00036035704216 0.00036085056425 0.0003626977005 0.00036552530979 0.00036933267228 0.00037393898796 
0.00037910750509 0.00038477729677 0.00039078215776 0.00039699651875 0.0004033173735 0.00040963485463 0.00041583799124 0.00042183403414 0.0004275788852 
0.00043295062323 0.00043790386446 0.0004424103992 0.00044636771998 0.0004497998511 0.00045264181964 0.00045483887403 0.00045648317077 0.00045746816746 
0.00045780694064 0.00045759862859 0.00045677674992 0.00045541119999 0.00045355342141 0.0004512072499 0.00044848733312 0.00044542043233 0.00044207382947 
0.00043856377271 0.00043496499195 0.00043137624665 0.00042790519007 0.00042468958183 0.0004218221896 0.00041945714801 0.00041777666276 0.00041680352616 
0.00040896236059 0.00039507630327 0.00038364380272 0.00037487607289 0.0003683948112 0.000363887228 0.00036134868891 0.00036035734627 0.00036085086836 
0.00036269830871 0.000365525918 0.00036933267228 0.00037393837975 0.00037910689688 0.00038477699266 0.00039078246186 0.00039699712696 0.0004033173735 
0.00040963455052 0.00041583799124 0.00042183403414 0.0004275788852 0.00043295092734 0.00043790386446 0.00044240979099 0.00044636711177 0.0004497998511 
0.00045264181964 0.00045483856992 0.00045648286666 0.00045746816746 0.00045780724474 0.00045759893269 0.00045677735813 0.00045541150409 0.00045355372551 
0.0004512072499 0.00044848702902 0.00044542012822 0.00044207352536 0.00043856377271 0.00043496529605 0.00043137685486 0.00042790519007 0.00042468927773 
0.0004218221896 0.00041945714801 0.00041777666276 0.00041680352616 0.00040896266469 0.00039507660738 0.00038364410683 0.00037487607289 0.0003683948112 
0.000363887228 0.0003613483848 0.00036035704216 0.00036085056425 0.0003626977005 0.00036552561389 0.00036933267228 0.00037393868385 0.00037910750509 
0.00038477729677 0.00039078215776 0.00039699651875 0.0004033173735 0.00040963485463 0.00041583799124 0.00042183403414 0.0004275788852 0.00043295062323 
0.00043790356035 0.0004424100951 0.00044636771998 0.0004497998511 0.00045264181964 0.00045483887403 0.00045648317077 0.00045746816746 0.00045780663653 
0.00045759832448 0.00045677705403 0.00045541150409 0.00045355342141 0.0004512072499 0.00044848702902 0.00044541982412 0.00044207382947 0.00043856438092 
0.00043496529605 0.00043137624665 0.00042790519007 0.00042468958183 0.00042182249371 0.00041945745212 0.00041777635865 0.00041680352616 0.00040896236059 
0.00039507630327 0.00038364410683 0.0003748766811 0.0003683948112 0.000363887228 0.00036134868891 0.00036035704216 0.00036085056425 0.0003626977005 
0.00036552561389 0.00036933297638 0.00037393898796 0.00037910750509 0.00038477729677 0.00039078215776 0.00039699651875 0.0004033173735 0.00040963485463 
0.00041583768714 0.00042183373004 0.0004275788852 0.00043295092734 0.00043790416856 0.0004424100951 0.00044636741588 0.0004497998511 0.00045264151553 
0.00045483856992 0.00045648317077 0.00045746816746 0.00045780694064 0.00045759893269 0.00045677705403 0.00045541119999 0.00045355372551 0.0004512072499 
0.00044848702902 0.00044542012822 0.00044207352536 0.00043856377271 0.00043496499195 0.00043137624665 0.00042790488596 0.00042468927773 0.0004218221896 
0.00041945714801 0.00041777666276 0.00041680352616 0.00040896236059 0.00039507660738 0.00038364410683 0.00037487607289 0.0003683948112 0.000363887228 
0.0003613483848 0.00036035704216 0.00036085086836 0.0003626980046 0.00036552530979 0.00036933236817 0.00037393868385 0.00037910720099 0.00038477699266 
0.00039078246186 0.00039699682286 0.0004033173735 0.00040963485463 0.00041583799124 0.00042183403414 0.0004275788852 0.00043295092734 0.00043790386446 
0.0004424100951 0.00044636771998 0.00044980015521 0.00045264212374 0.00045483887403 0.00045648286666 0.00045746786336 0.00045780694064 0.00045759862859 
0.00045677705403 0.00045541150409 0.00045355342141 0.0004512072499 0.00044848733312 0.00044542012822 0.00044207352536 0.00043856377271 0.00043496529605 
0.00043137685486 0.00042790549417 0.00042468958183 0.0004218221896 0.00041945714801 0.00041777666276 0.00041680352616 0.0004089629688 0.00039507660738 
0.00038364380272 0.00037487607289 0.0003683948112 0.00036388753211 0.00036134868891 0.00036035704216 0.00036085056425 0.0003626980046 0.000365525918 
0.00036933267228 0.00037393837975 0.00037910720099 0.00038477729677 0.00039078215776 0.00039699651875 0.0004033173735 0.00040963485463 0.00041583799124 
0.00042183403414 0.0004275788852 0.00043295062323 0.00043790356035 0.0004424100951 0.00044636741588 0.00044979924289 0.00045264121142 0.00045483856992 
0.00045648347487 0.00045746877567 0.00045780694064 0.00045759862859 0.00045677735813 0.00045541119999 0.00045355342141 0.0004512072499 0.00044848702902 
0.00044541982412 0.00044207322126 0.00043856377271 0.00043496499195 0.00043137624665 0.00042790488596 0.00042468927773 0.00042182249371 0.00041945745212 
0.00041777635865 0.00041680352616 0.00040896236059 0.00039507660738 0.00038364441094 0.000374876377 0.0003683948112 0.000363887228 0.00036134868891 
0.00036035734627 0.00036085056425 0.0003626977005 0.00036552561389 0.00036933297638 0.00037393898796 0.00037910750509 0.00038477729677 0.00039078215776 
0.00039699651875 0.0004033173735 0.00040963455052 0.00041583768714 0.00042183403414 0.0004275785811 0.00043295031912 0.00043790356035 0.00044240979099 
0.00044636741588 0.00044980015521 0.00045264181964 0.00045483856992 0.00045648256256 0.00045746725515 0.00045780663653 0.00045759862859 0.00045677705403 
0.00045541150409 0.00045355342141 0.00045120755401 0.00044848763723 0.00044542043233 0.00044207382947 0.00043856377271 0.00043496529605 0.00043137685486 