# vtk DataFile Version 4.0
vtk output
ASCII
DATASET STRUCTURED_GRID
DIMENSIONS 50 1 50
POINTS 2500 float
0 0 0 0.0204082 0 0 0.0408163 0 0 
0.0612245 0 0 0.0816327 0 0 0.102041 0 0 
0.122449 0 0 0.142857 0 0 0.163265 0 0 
0.183673 0 0 0.204082 0 0 0.22449 0 0 
0.244898 0 0 0.265306 0 0 0.285714 0 0 
0.306122 0 0 0.326531 0 0 0.346939 0 0 
0.367347 0 0 0.387755 0 0 0.408163 0 0 
0.428571 0 0 0.44898 0 0 0.469388 0 0 
0.489796 0 0 0.510204 0 0 0.530612 0 0 
0.55102 0 0 0.571429 0 0 0.591837 0 0 
0.612245 0 0 0.632653 0 0 0.653061 0 0 
0.673469 0 0 0.693878 0 0 0.714286 0 0 
0.734694 0 0 0.755102 0 0 0.77551 0 0 
0.795918 0 0 0.816327 0 0 0.836735 0 0 
0.857143 0 0 0.877551 0 0 0.897959 0 0 
0.918367 0 0 0.938776 0 0 0.959184 0 0 
0.979592 0 0 1 0 0 0 0.0204082 0 
0.0204082 0.0211462 0 0.0408163 0.021769 0 0.0612245 0.0222665 0 
0.0816327 0.0226282 0 0.102041 0.0229017 0 0.122449 0.02307 0 
0.142857 0.0231505 0 0.163265 0.0231671 0 0.183673 0.0231022 0 
0.204082 0.0229861 0 0.22449 0.0228251 0 0.244898 0.022613 0 
0.265306 0.0223736 0 0.285714 0.0221065 0 0.306122 0.0218179 0 
0.326531 0.021518 0 0.346939 0.021209 0 0.367347 0.0208985 0 
0.387755 0.0205899 0 0.408163 0.0202907 0 0.428571 0.0200022 0 
0.44898 0.0197277 0 0.469388 0.0194758 0 0.489796 0.0192422 0 
0.510204 0.0190342 0 0.530612 0.0188544 0 0.55102 0.0186978 0 
0.571429 0.018576 0 0.591837 0.0184824 0 0.612245 0.0184149 0 
0.632653 0.0183859 0 0.653061 0.0183817 0 0.673469 0.0184063 0 
0.693878 0.0184623 0 0.714286 0.01854 0 0.734694 0.0186444 0 
0.755102 0.0187699 0 0.77551 0.018911 0 0.795918 0.0190705 0 
0.816327 0.019239 0 0.836735 0.0194143 0 0.857143 0.0195917 0 
0.877551 0.019766 0 0.897959 0.0199319 0 0.918367 0.0200812 0 
0.938776 0.020213 0 0.959184 0.0203128 0 0.979592 0.0203777 0 
1 0.0204082 0 0 0.0408163 0 0.0204082 0.0422923 0 
0.0408163 0.043538 0 0.0612245 0.0445331 0 0.0816327 0.0452565 0 
0.102041 0.0458035 0 0.122449 0.0461399 0 0.142857 0.0463011 0 
0.163265 0.0463342 0 0.183673 0.0462044 0 0.204082 0.0459721 0 
0.22449 0.0456501 0 0.244898 0.045226 0 0.265306 0.0447473 0 
0.285714 0.0442131 0 0.306122 0.0436359 0 0.326531 0.0430361 0 
0.346939 0.042418 0 0.367347 0.0417971 0 0.387755 0.0411798 0 
0.408163 0.0405814 0 0.428571 0.0400044 0 0.44898 0.0394554 0 
0.469388 0.0389516 0 0.489796 0.0384845 0 0.510204 0.0380684 0 
0.530612 0.0377088 0 0.55102 0.0373957 0 0.571429 0.0371521 0 
0.591837 0.0369648 0 0.612245 0.0368298 0 0.632653 0.0367717 0 
0.653061 0.0367634 0 0.673469 0.0368126 0 0.693878 0.0369247 0 
0.714286 0.03708 0 0.734694 0.0372888 0 0.755102 0.0375398 0 
0.77551 0.0378219 0 0.795918 0.038141 0 0.816327 0.0384781 0 
0.836735 0.0388286 0 0.857143 0.0391835 0 0.877551 0.039532 0 
0.897959 0.0398638 0 0.918367 0.0401623 0 0.938776 0.040426 0 
0.959184 0.0406256 0 0.979592 0.0407555 0 1 0.0408163 0 
0 0.0612245 0 0.0204082 0.0634385 0 0.0408163 0.065307 0 
0.0612245 0.0667996 0 0.0816327 0.0678847 0 0.102041 0.0687052 0 
0.122449 0.0692099 0 0.142857 0.0694516 0 0.163265 0.0695013 0 
0.183673 0.0693066 0 0.204082 0.0689582 0 0.22449 0.0684752 0 
0.244898 0.067839 0 0.265306 0.0671209 0 0.285714 0.0663196 0 
0.306122 0.0654538 0 0.326531 0.0645541 0 0.346939 0.063627 0 
0.367347 0.0626956 0 0.387755 0.0617696 0 0.408163 0.0608721 0 
0.428571 0.0600066 0 0.44898 0.0591831 0 0.469388 0.0584275 0 
0.489796 0.0577267 0 0.510204 0.0571026 0 0.530612 0.0565632 0 
0.55102 0.0560935 0 0.571429 0.0557281 0 0.591837 0.0554472 0 
0.612245 0.0552447 0 0.632653 0.0551576 0 0.653061 0.0551451 0 
0.673469 0.0552188 0 0.693878 0.055387 0 0.714286 0.05562 0 
0.734694 0.0559332 0 0.755102 0.0563098 0 0.77551 0.0567329 0 
0.795918 0.0572115 0 0.816327 0.0577171 0 0.836735 0.058243 0 
0.857143 0.0587752 0 0.877551 0.059298 0 0.897959 0.0597958 0 
0.918367 0.0602435 0 0.938776 0.0606391 0 0.959184 0.0609384 0 
0.979592 0.0611332 0 1 0.0612245 0 0 0.0816327 0 
0.0204082 0.0845846 0 0.0408163 0.087076 0 0.0612245 0.0890662 0 
0.0816327 0.0905129 0 0.102041 0.091607 0 0.122449 0.0922798 0 
0.142857 0.0926022 0 0.163265 0.0926684 0 0.183673 0.0924088 0 
0.204082 0.0919443 0 0.22449 0.0913002 0 0.244898 0.090452 0 
0.265306 0.0894946 0 0.285714 0.0884261 0 0.306122 0.0872718 0 
0.326531 0.0860721 0 0.346939 0.0848359 0 0.367347 0.0835942 0 
0.387755 0.0823595 0 0.408163 0.0811628 0 0.428571 0.0800088 0 
0.44898 0.0789108 0 0.469388 0.0779033 0 0.489796 0.076969 0 
0.510204 0.0761368 0 0.530612 0.0754176 0 0.55102 0.0747913 0 
0.571429 0.0743041 0 0.591837 0.0739296 0 0.612245 0.0736595 0 
0.632653 0.0735435 0 0.653061 0.0735267 0 0.673469 0.0736251 0 
0.693878 0.0738493 0 0.714286 0.07416 0 0.734694 0.0745776 0 
0.755102 0.0750797 0 0.77551 0.0756439 0 0.795918 0.076282 0 
0.816327 0.0769562 0 0.836735 0.0776573 0 0.857143 0.0783669 0 
0.877551 0.0790641 0 0.897959 0.0797277 0 0.918367 0.0803246 0 
0.938776 0.0808521 0 0.959184 0.0812512 0 0.979592 0.0815109 0 
1 0.0816327 0 0 0.102041 0 0.0204082 0.105731 0 
0.0408163 0.108845 0 0.0612245 0.111333 0 0.0816327 0.113141 0 
0.102041 0.114509 0 0.122449 0.11535 0 0.142857 0.115753 0 
0.163265 0.115835 0 0.183673 0.115511 0 0.204082 0.11493 0 
0.22449 0.114125 0 0.244898 0.113065 0 0.265306 0.111868 0 
0.285714 0.110533 0 0.306122 0.10909 0 0.326531 0.10759 0 
0.346939 0.106045 0 0.367347 0.104493 0 0.387755 0.102949 0 
0.408163 0.101453 0 0.428571 0.100011 0 0.44898 0.0986385 0 
0.469388 0.0973791 0 0.489796 0.0962112 0 0.510204 0.095171 0 
0.530612 0.094272 0 0.55102 0.0934892 0 0.571429 0.0928801 0 
0.591837 0.092412 0 0.612245 0.0920744 0 0.632653 0.0919293 0 
0.653061 0.0919084 0 0.673469 0.0920314 0 0.693878 0.0923117 0 
0.714286 0.0926999 0 0.734694 0.093222 0 0.755102 0.0938496 0 
0.77551 0.0945549 0 0.795918 0.0953525 0 0.816327 0.0961953 0 
0.836735 0.0970716 0 0.857143 0.0979586 0 0.877551 0.0988301 0 
0.897959 0.0996596 0 0.918367 0.100406 0 0.938776 0.101065 0 
0.959184 0.101564 0 0.979592 0.101889 0 1 0.102041 0 
0 0.122449 0 0.0204082 0.126877 0 0.0408163 0.130614 0 
0.0612245 0.133599 0 0.0816327 0.135769 0 0.102041 0.13741 0 
0.122449 0.13842 0 0.142857 0.138903 0 0.163265 0.139003 0 
0.183673 0.138613 0 0.204082 0.137916 0 0.22449 0.13695 0 
0.244898 0.135678 0 0.265306 0.134242 0 0.285714 0.132639 0 
0.306122 0.130908 0 0.326531 0.129108 0 0.346939 0.127254 0 
0.367347 0.125391 0 0.387755 0.123539 0 0.408163 0.121744 0 
0.428571 0.120013 0 0.44898 0.118366 0 0.469388 0.116855 0 
0.489796 0.115453 0 0.510204 0.114205 0 0.530612 0.113126 0 
0.55102 0.112187 0 0.571429 0.111456 0 0.591837 0.110894 0 
0.612245 0.110489 0 0.632653 0.110315 0 0.653061 0.11029 0 
0.673469 0.110438 0 0.693878 0.110774 0 0.714286 0.11124 0 
0.734694 0.111866 0 0.755102 0.11262 0 0.77551 0.113466 0 
0.795918 0.114423 0 0.816327 0.115434 0 0.836735 0.116486 0 
0.857143 0.11755 0 0.877551 0.118596 0 0.897959 0.119592 0 
0.918367 0.120487 0 0.938776 0.121278 0 0.959184 0.121877 0 
0.979592 0.122266 0 1 0.122449 0 0 0.142857 0 
0.0204082 0.148023 0 0.0408163 0.152383 0 0.0612245 0.155866 0 
0.0816327 0.158398 0 0.102041 0.160312 0 0.122449 0.16149 0 
0.142857 0.162054 0 0.163265 0.16217 0 0.183673 0.161715 0 
0.204082 0.160902 0 0.22449 0.159775 0 0.244898 0.158291 0 
0.265306 0.156616 0 0.285714 0.154746 0 0.306122 0.152726 0 
0.326531 0.150626 0 0.346939 0.148463 0 0.367347 0.14629 0 
0.387755 0.144129 0 0.408163 0.142035 0 0.428571 0.140015 0 
0.44898 0.138094 0 0.469388 0.136331 0 0.489796 0.134696 0 
0.510204 0.133239 0 0.530612 0.131981 0 0.55102 0.130885 0 
0.571429 0.130032 0 0.591837 0.129377 0 0.612245 0.128904 0 
0.632653 0.128701 0 0.653061 0.128672 0 0.673469 0.128844 0 
0.693878 0.129236 0 0.714286 0.12978 0 0.734694 0.130511 0 
0.755102 0.131389 0 0.77551 0.132377 0 0.795918 0.133493 0 
0.816327 0.134673 0 0.836735 0.1359 0 0.857143 0.137142 0 
0.877551 0.138362 0 0.897959 0.139523 0 0.918367 0.140568 0 
0.938776 0.141491 0 0.959184 0.14219 0 0.979592 0.142644 0 
1 0.142857 0 0 0.163265 0 0.0204082 0.169169 0 
0.0408163 0.174152 0 0.0612245 0.178132 0 0.0816327 0.181026 0 
0.102041 0.183214 0 0.122449 0.18456 0 0.142857 0.185204 0 
0.163265 0.185337 0 0.183673 0.184818 0 0.204082 0.183889 0 
0.22449 0.1826 0 0.244898 0.180904 0 0.265306 0.178989 0 
0.285714 0.176852 0 0.306122 0.174544 0 0.326531 0.172144 0 
0.346939 0.169672 0 0.367347 0.167188 0 0.387755 0.164719 0 
0.408163 0.162326 0 0.428571 0.160018 0 0.44898 0.157822 0 
0.469388 0.155807 0 0.489796 0.153938 0 0.510204 0.152274 0 
0.530612 0.150835 0 0.55102 0.149583 0 0.571429 0.148608 0 
0.591837 0.147859 0 0.612245 0.147319 0 0.632653 0.147087 0 
0.653061 0.147053 0 0.673469 0.14725 0 0.693878 0.147699 0 
0.714286 0.14832 0 0.734694 0.149155 0 0.755102 0.150159 0 
0.77551 0.151288 0 0.795918 0.152564 0 0.816327 0.153912 0 
0.836735 0.155315 0 0.857143 0.156734 0 0.877551 0.158128 0 
0.897959 0.159455 0 0.918367 0.160649 0 0.938776 0.161704 0 
0.959184 0.162502 0 0.979592 0.163022 0 1 0.163265 0 
0 0.183673 0 0.0204082 0.190315 0 0.0408163 0.195921 0 
0.0612245 0.200399 0 0.0816327 0.203654 0 0.102041 0.206116 0 
0.122449 0.20763 0 0.142857 0.208355 0 0.163265 0.208504 0 
0.183673 0.20792 0 0.204082 0.206875 0 0.22449 0.205426 0 
0.244898 0.203517 0 0.265306 0.201363 0 0.285714 0.198959 0 
0.306122 0.196361 0 0.326531 0.193662 0 0.346939 0.190881 0 
0.367347 0.188087 0 0.387755 0.185309 0 0.408163 0.182616 0 
0.428571 0.18002 0 0.44898 0.177549 0 0.469388 0.175282 0 
0.489796 0.17318 0 0.510204 0.171308 0 0.530612 0.16969 0 
0.55102 0.168281 0 0.571429 0.167184 0 0.591837 0.166342 0 
0.612245 0.165734 0 0.632653 0.165473 0 0.653061 0.165435 0 
0.673469 0.165657 0 0.693878 0.166161 0 0.714286 0.16686 0 
0.734694 0.1678 0 0.755102 0.168929 0 0.77551 0.170199 0 
0.795918 0.171634 0 0.816327 0.173151 0 0.836735 0.174729 0 
0.857143 0.176326 0 0.877551 0.177894 0 0.897959 0.179387 0 
0.918367 0.18073 0 0.938776 0.181917 0 0.959184 0.182815 0 
0.979592 0.1834 0 1 0.183673 0 0 0.204082 0 
[...]
CELL_DATA 2401
FIELD FieldData 1
Weights 1 2401 double
0.00042402370895 0.00043790972826 0.00044934226682 0.00045810992062 0.00046459163847 0.00046909887955 0.00047163791282 0.00047262874228 0.0004721358094 
0.00047028861613 0.00046746026558 0.00046365377739 0.0004590471386 0.00045387972385 0.00044820865873 0.00044220360768 0.00043599040608 0.00042966848696 
0.00042335108187 0.00041714918068 0.00041115192136 0.00040540701328 0.0004000362826 0.00039508203402 0.00039057580338 0.00038661831155 0.00038318595234 
0.00038034651169 0.00037814713849 0.00037650278473 0.00037551769301 0.00037517893884 0.00037538721288 0.00037621122028 0.00037757450843 0.00037943232502 
0.00038177859156 0.00038449875542 0.00038756578926 0.00039091465391 0.00039442195471 0.00039802069746 0.00040160940474 0.00040508072742 0.00040829641168 
0.00041116598967 0.00041352863643 0.00041520933076 0.0004161823343 0.00042402370895 0.00043790972826 0.00044934226682 0.00045810992062 0.00046459163847 
0.00046909887955 0.00047163791282 0.00047262874228 0.0004721358094 0.00047028861613 0.00046746026558 0.00046365377739 0.0004590471386 0.00045387972385 
0.00044820865873 0.00044220360768 0.00043599040608 0.00042966848696 0.00042335108187 0.00041714918068 0.00041115192136 0.00040540701328 0.0004000362826 
0.00039508203402 0.00039057580338 0.00038661831155 0.00038318595234 0.00038034651169 0.00037814713849 0.00037650278473 0.00037551769301 0.00037517893884 
0.00037538721288 0.00037621122028 0.00037757450843 0.00037943232502 0.00038177859156 0.00038449875542 0.00038756578926 0.00039091465391 0.00039442195471 
0.00039802069746 0.00040160940474 0.00040508072742 0.00040829641168 0.00041116598967 0.00041352863643 0.00041520933076 0.0004161823343 0.00042402370895 
0.00043790976627 0.00044934226682 0.0004581098446 0.00046459163847 0.00046909884154 0.00047163791282 0.00047262876129 0.00047213573337 0.00047028855911 
0.00046746022757 0.00046365370137 0.0004590471196 0.00045387974286 0.00044820862072 0.00044220360768 0.00043599042509 0.00042966842994 0.00042335102485 
0.00041714918068 0.00041115192136 0.00040540703229 0.0004000362826 0.00039508201502 0.00039057582239 0.00038661831155 0.00038318591433 0.00038034649268 
0.00037814711949 0.00037650278473 0.00037551771201 0.00037517893884 0.00037538721288 0.00037621125829 0.00037757452743 0.00037943230601 0.00038177859156 
0.00038449873642 0.00038756578926 0.00039091467291 0.0003944219167 0.00039802065945 0.00040160940474 0.00040508076543 0.00040829648771 0.00041116604669 
0.00041352865543 0.00041520933076 0.00041618235331 0.00042402370895 0.00043790969024 0.00044934226682 0.00045810999665 0.00046459163847 0.00046909891756 
0.00047163791282 0.00047262872327 0.00047213588542 0.00047028867315 0.00046746030359 0.00046365385342 0.00045904715761 0.00045387970484 0.00044820869675 
0.00044220360768 0.00043599038708 0.00042966854398 0.00042335113889 0.00041714918068 0.00041115192136 0.00040540699427 0.0004000362826 0.00039508205303 
0.00039057578438 0.00038661831155 0.00038318599036 0.00038034653069 0.0003781471575 0.00037650278473 0.000375517674 0.00037517893884 0.00037538721288 
0.00037621118226 0.00037757448942 0.00037943234403 0.00038177859156 0.00038449877443 0.00038756578926 0.0003909146349 0.00039442199272 0.00039802073548 
0.00040160940474 0.00040508068941 0.00040829633565 0.00041116593265 0.00041352861742 0.00041520933076 0.0004161823153 0.00042402378498 0.00043790976627 
0.00044934226682 0.00045810992062 0.0004645917145 0.00046909891756 0.00047163791282 0.00047262872327 0.00047213573337 0.0004702885211 0.00046746015154 
0.00046365370137 0.00045904715761 0.00045387978087 0.00044820862072 0.00044220353165 0.00043599038708 0.00042966846796 0.00042335106286 0.00041714914267 
0.00041115188334 0.00040540703229 0.0004000362826 0.00039508205303 0.00039057582239 0.00038661827353 0.00038318591433 0.00038034645467 0.00037814704346 
0.00037650274672 0.000375517674 0.00037517890082 0.00037538721288 0.00037621122028 0.00037757448942 0.00037943234403 0.00038177859156 0.00038449873642 
0.00038756578926 0.00039091467291 0.0003944219167 0.00039802062144 0.00040160936673 0.00040508072742 0.00040829648771 0.00041116600867 0.00041352861742 
0.00041520933076 0.00041618239132 0.00042402363293 0.00043790976627 0.00044934226682 0.00045810976857 0.00046459156245 0.00046909876551 0.00047163791282 
0.0004726287993 0.00047213573337 0.00047028859712 0.00046746030359 0.00046365370137 0.00045904708158 0.00045387970484 0.00044820862072 0.0004422036837 
0.0004359904631 0.00042966839193 0.00042335098683 0.00041714921869 0.00041115195937 0.00040540703229 0.0004000362826 0.000395081977 0.00039057582239 
0.00038661834956 0.00038318591433 0.00038034653069 0.00037814719551 0.00037650282275 0.00037551775003 0.00037517897685 0.00037538721288 0.0003762112963 
0.00037757456545 0.000379432268 0.00038177859156 0.00038449873642 0.00038756578926 0.00039091467291 0.0003944219167 0.00039802069746 0.00040160944276 
0.00040508080345 0.00040829648771 0.0004111660847 0.00041352869345 0.00041520933076 0.0004161823153 0.00042402378498 0.00043790969024 0.00044934226682 
0.00045810999665 0.0004645917145 0.00046909899359 0.00047163783679 0.00047262857122 0.0004721358094 0.00047028867315 0.00046746030359 0.00046365385342 
0.00045904723364 0.00045387978087 0.00044820862072 0.00044220345562 0.00043599031105 0.00042966854398 0.00042335121491 0.00041714921869 0.00041115180732 
0.00040540695626 0.00040003620657 0.00039508190098 0.00039057574636 0.00038661827353 0.00038318591433 0.00038034653069 0.00037814711949 0.0003765026707 
0.00037551759797 0.00037517890082 0.00037538713685 0.00037621106822 0.0003775744134 0.00037943234403 0.00038177851553 0.00038449866039 0.00038756578926 
0.00039091459689 0.00039442199272 0.00039802084951 0.00040160944276 0.0004050806514 0.00040829633565 0.00041116600867 0.00041352861742 0.00041520925473 
0.00041618239132 0.00042402363293 0.00043790969024 0.00044934226682 0.00045810999665 0.00046459156245 0.00046909884154 0.00047163798884 0.00047262887533 
0.00047213596145 0.00047028867315 0.00046746030359 0.00046365385342 0.00045904708158 0.00045387962882 0.00044820877277 0.00044220375973 0.0004359904631 
0.00042966854398 0.00042335106286 0.00041714914267 0.0004111520354 0.00040540703229 0.00040003635863 0.00039508220508 0.00039057582239 0.00038661834956 
0.00038318606638 0.00038034653069 0.00037814719551 0.00037650289877 0.00037551775003 0.00037517897685 0.0003753872889 0.0003762112963 0.00037757456545 
0.00037943234403 0.00038177866758 0.00038449888847 0.00038756578926 0.00039091467291 0.00039442199272 0.00039802062144 0.00040160936673 0.00040508072742 
0.00040829633565 0.00041116585662 0.00041352861742 0.00041520940678 0.00041618223927 0.00042402378498 0.0004379098423 0.00044934226682 0.0004581098446 
0.0004645917145 0.00046909884154 0.00047163783679 0.00047262872327 0.00047213565734 0.00047028836904 0.00046745999949 0.00046365354932 0.00045904708158 
0.00045387978087 0.00044820862072 0.00044220345562 0.00043599031105 0.00042966839193 0.00042335106286 0.00041714929472 0.00041115188334 0.00040540703229 
0.00040003635863 0.00039508205303 0.00039057582239 0.00038661819751 0.00038318591433 0.00038034653069 0.00037814704346 0.00037650274672 0.00037551775003 
0.00037517897685 0.00037538713685 0.00037621114425 0.0003775744134 0.00037943219197 0.00038177851553 0.00038449873642 0.00038756578926 0.00039091467291 
0.00039442184067 0.00039802062144 0.00040160936673 0.00040508072742 0.00040829663976 0.00041116616073 0.00041352861742 0.00041520925473 0.00041618239132 
0.00042402378498 0.00043790969024 0.00044934226682 0.00045810999665 0.0004645917145 0.00046909899359 0.00047163798884 0.00047262872327 0.0004721358094 
0.00047028867315 0.00046746030359 0.00046365385342 0.00045904723364 0.00045387978087 0.00044820862072 0.00044220360768 0.0004359904631 0.00042966854398 
0.00042335106286 0.00041714899061 0.00041115188334 0.00040540703229 0.00040003620657 0.00039508205303 0.00039057582239 0.00038661834956 0.00038318591433 
0.00038034637864 0.00037814704346 0.00037650274672 0.00037551759797 0.0003751788248 0.0003753872889 0.0003762112963 0.00037757456545 0.00037943249608 
0.00038177866758 0.00038449873642 0.00038756578926 0.00039091467291 0.00039442199272 0.00039802062144 0.00040160936673 0.00040508072742 0.00040829633565 
0.00041116585662 0.00041352861742 0.00041520940678 0.00041618239132 0.00042402363293 0.0004379098423 0.00044934226682 0.00045810969254 0.00046459141039 
0.00046909868949 0.00047163783679 0.00047262887533 0.00047213596145 0.0004702885211 0.00046746015154 0.00046365370137 0.00045904708158 0.00045387978087 
0.00044820862072 0.00044220360768 0.0004359904631 0.00042966839193 0.00042335106286 0.00041714929472 0.00041115188334 0.00040540703229 0.00040003635863 
0.00039508205303 0.00039057582239 0.00038661819751 0.00038318591433 0.00038034668275 0.00037814734756 0.00037650289877 0.00037551775003 0.00037517897685 
0.00037538713685 0.00037621114425 0.00037757456545 0.00037943234403 0.00038177851553 0.00038449873642 0.00038756594132 0.00039091467291 0.00039442184067 
0.00039802077349 0.00040160951878 0.00040508072742 0.00040829633565 0.00041116600867 0.00041352861742 0.00041520925473 0.00041618223927 0.00042402363293 
0.00043790969024 0.00044934226682 0.0004581098446 0.0004645917145 0.00046909884154 0.00047163798884 0.00047262872327 0.00047213550529 0.00047028867315 
0.00046746045565 0.00046365370137 0.00045904708158 0.00045387962882 0.00044820862072 0.00044220375973 0.0004359904631 0.00042966839193 0.00042335091081 
0.00041714914267 0.0004111520354 0.00040540703229 0.00040003620657 0.00039508190098 0.00039057582239 0.00038661850161 0.00038318591433 0.00038034637864 
0.00037814704346 0.00037650274672 0.00037551775003 0.00037517897685 0.0003753872889 0.00037621144836 0.00037757456545 0.00037943219197 0.00038177866758 
0.00038449873642 0.00038756563721 0.00039091467291 0.00039442199272 0.00039802062144 0.00040160936673 0.00040508087947 0.00040829663976 0.00041116616073 
0.00041352876947 0.00041520940678 0.00041618239132 0.00042402378498 0.0004379098423 0.00044934241887 0.00045811030075 0.00046459186655 0.00046909914564 
0.00047163798884 0.00047262872327 0.0004721361135 0.00047028867315 0.00046746015154 0.00046365400547 0.00045904738569 0.00045387978087 0.00044820877277 
0.00044220360768 0.0004359904631 0.00042966869604 0.00042335121491 0.00041714914267 0.00041115188334 0.00040540703229 0.00040003605452 0.00039508190098 
0.00039057582239 0.00038661819751 0.00038318591433 0.00038034653069 0.00037814704346 0.00037650274672 0.00037551759797 0.0003751788248 0.00037538713685 
0.00037621114425 0.00037757456545 0.00037943234403 0.00038177851553 0.00038449873642 0.00038756578926 0.00039091467291 0.00039442199272 0.00039802062144 
0.00040160936673 0.00040508072742 0.00040829648771 0.00041116600867 0.00041352861742 0.00041520940678 0.00041618223927 0.00042402378498 0.00043790953819 
0.00044934211476 0.00045810969254 0.00046459156245 0.00046909884154 0.00047163768474 0.00047262841917 0.00047213550529 0.00047028867315 0.00046746045565 
0.00046365370137 0.00045904708158 0.00045387978087 0.00044820846867 0.00044220330357 0.000435990159 0.00042966839193 0.00042335121491 0.00041714929472 
0.00041115173129 0.00040540688023 0.00040003635863 0.00039508190098 0.00039057567034 0.00038661834956 0.00038318591433 0.00038034653069 0.00037814719551 
0.00037650259467 0.00037551759797 0.00037517897685 0.00037538713685 0.0003762109922 0.00037757426134 0.00037943234403 0.00038177851553 0.00038449858436 
0.00038756578926 0.00039091452086 0.00039442199272 0.00039802107759 0.00040160951878 0.00040508057537 0.0004082961836 0.00041116600867 0.00041352861742 
0.00041520910268 0.00041618254338 0.00042402378498 0.0004379098423 0.00044934211476 0.00045810969254 0.00046459125834 0.00046909853743 0.00047163798884 
0.00047262902738 0.0004721358094 0.00047028836904 0.00046746015154 0.00046365370137 0.00045904677748 0.00045387947676 0.00044820877277 0.00044220360768 
0.0004359904631 0.00042966869604 0.00042335091081 0.00041714899061 0.0004111520354 0.00040540718434 0.00040003666273 0.00039508250919 0.00039057597444 
0.00038661834956 0.00038318621844 0.00038034668275 0.00037814719551 0.00037650289877 0.00037551759797 0.0003751788248 0.00037538744095 0.00037621144836 
0.00037757456545 0.00037943234403 0.00038177881964 0.00038449904052 0.00038756594132 0.00039091497702 0.00039442199272 0.00039802046938 0.00040160921468 
0.00040508057537 0.00040829648771 0.00041116600867 0.00041352861742 0.00041520940678 0.00041618223927 0.00042402348087 0.00043790953819 0.00044934241887 
0.00045811030075 0.00046459186655 0.00046909914564 0.00047163798884 0.00047262872327 0.0004721361135 0.00047028897726 0.00046746045565 0.00046365400547 
0.00045904738569 0.00045387978087 0.00044820877277 0.00044220391178 0.0004359904631 0.00042966839193 0.00042335121491 0.00041714929472 0.0004111520354 
0.00040540688023 0.00040003605452 0.00039508190098 0.00039057567034 0.00038661834956 0.00038318591433 0.00038034637864 0.00037814719551 0.00037650289877 
0.00037551790208 0.0003751791289 0.00037538713685 0.00037621114425 0.00037757456545 0.00037943234403 0.00038177851553 0.00038449873642 0.00038756563721 
0.00039091436881 0.00039442199272 0.00039802077349 0.00040160951878 0.00040508087947 0.0004082961836 0.00041116570457 0.00041352861742 0.00041520940678 
0.00041618223927 0.00042402408909 0.0004379101464 0.00044934241887 0.00045810969254 0.00046459156245 0.00046909884154 0.00047163798884 0.00047262872327 
0.00047213550529 0.00047028836904 0.00046746015154 0.00046365370137 0.00045904708158 0.00045387978087 0.00044820846867 0.00044220330357 0.0004359904631 
0.00042966839193 0.00042335091081 0.00041714929472 0.0004111520354 0.00040540718434 0.00040003635863 0.00039508220508 0.00039057597444 0.00038661804545 
0.00038318561023 0.00038034637864 0.00037814689141 0.00037650259467 0.00037551759797 0.0003751788248 0.00037538713685 0.00037621114425 0.00037757456545 
0.00037943234403 0.00038177851553 0.00038449873642 0.00038756594132 0.00039091467291 0.00039442168862 0.00039802046938 0.00040160921468 0.00040508087947 
0.00040829679181 0.00041116631278 0.00041352892153 0.00041520940678 0.00041618254338 0.00042402348087 0.00043790953819 0.00044934211476 0.00045810999665 
0.00046459186655 0.00046909884154 0.00047163768474 0.00047262872327 0.0004721358094 0.00047028836904 0.00046745984744 0.00046365339726 0.00045904708158 
0.00045387978087 0.00044820877277 0.00044220360768 0.000435990159 0.00042966839193 0.00042335121491 0.00041714929472 0.00041115173129 0.00040540688023 
0.00040003635863 0.00039508190098 0.00039057567034 0.00038661834956 0.00038318621844 0.00038034668275 0.00037814719551 0.00037650289877 0.00037551790208 
0.0003751791289 0.00037538713685 0.00037621114425 0.00037757426134 0.00037943203992 0.00038177851553 0.00038449873642 0.00038756563721 0.00039091467291 
0.00039442199272 0.00039802077349 0.00040160951878 0.00040508057537 0.00040829648771 0.00041116600867 0.00041352831332 0.00041520910268 0.00041618223927 
0.00042402378498 0.0004379098423 0.00044934241887 0.00045810999665 0.00046459156245 0.00046909884154 0.00047163798884 0.00047262872327 0.0004721358094 
0.00047028897726 0.00046746045565 0.00046365370137 0.00045904708158 0.00045387978087 0.00044820846867 0.00044220360768 0.00043599076721 0.00042966869604 
0.00042335091081 0.00041714899061 0.0004111520354 0.00040540688023 0.00040003605452 0.00039508190098 0.00039057567034 0.00038661834956 0.00038318591433 
0.00038034637864 0.00037814719551 0.00037650289877 0.00037551759797 0.0003751788248 0.00037538744095 0.00037621144836 0.00037757456545 0.00037943264813 
0.00038177881964 0.00038449873642 0.00038756594132 0.00039091467291 0.00039442199272 0.00039802077349 0.00040160951878 0.00040508087947 0.0004082961836 
0.00041116570457 0.00041352861742 0.00041520940678 0.00041618223927 0.00042402378498 0.00043790953819 0.00044934211476 0.00045810999665 0.00046459186655 
0.00046909914564 0.00047163798884 0.00047262872327 0.0004721358094 0.00047028836904 0.00046746015154 0.00046365400547 0.00045904738569 0.00045387978087 
0.00044820877277 0.00044220360768 0.000435990159 0.00042966839193 0.00042335121491 0.00041714899061 0.00041115173129 0.00040540718434 0.00040003635863 
0.00039508220508 0.00039057597444 0.00038661834956 0.00038318591433 0.00038034637864 0.00037814689141 0.00037650259467 0.00037551759797 0.0003751788248 
0.00037538713685 0.00037621114425 0.00037757456545 0.00037943234403 0.00038177851553 0.00038449873642 0.00038756563721 0.00039091467291 0.00039442199272 
0.00039802046938 0.00040160921468 0.00040508057537 0.00040829648771 0.00041116600867 0.00041352861742 0.00041520940678 0.00041618254338 0.00042402378498 
0.0004379098423 0.00044934211476 0.00045810969254 0.00046459125834 0.00046909853743 0.00047163798884 0.00047262902738 0.0004721358094 0.00047028867315 
0.00046746045565 0.00046365370137 0.00045904708158 0.00045387978087 0.00044820877277 0.00044220360768 0.0004359904631 0.00042966839193 0.00042335091081 
0.00041714929472 0.0004111520354 0.00040540718434 0.00040003635863 0.00039508190098 0.00039057567034 0.00038661834956 0.00038318621844 0.00038034698685 
0.00037814749962 0.00037650289877 0.00037551790208 0.0003751791289 0.00037538713685 0.00037621114425 0.00037757456545 0.00037943234403 0.00038177851553 
0.00038449873642 0.00038756594132 0.00039091467291 0.00039442199272 0.00039802077349 0.00040160921468 0.00040508057537 0.00040829648771 0.00041116631278 
0.00041352892153 0.00041520940678 0.00041618223927 0.00042402348087 0.0004379098423 0.00044934241887 0.00045810969254 0.00046459156245 0.00046909884154 
0.00047163768474 0.00047262872327 0.0004721361135 0.00047028836904 0.00046745984744 0.00046365370137 0.00045904708158 0.00045387978087 0.00044820846867 
0.00044220360768 0.0004359904631 0.00042966839193 0.00042335121491 0.00041714929472 0.00041115173129 0.00040540688023 0.00040003635863 0.00039508220508 
0.00039057597444 0.00038661804545 0.00038318561023 0.00038034637864 0.00037814719551 0.00037650289877 0.00037551759797 0.0003751788248 0.00037538713685 
0.00037621114425 0.00037757456545 0.00037943234403 0.00038177851553 0.00038449873642 0.00038756594132 0.00039091467291 0.00039442168862 0.00039802077349 
0.00040160982289 0.00040508087947 0.0004082961836 0.00041116570457 0.00041352831332 0.00041520910268 0.00041618223927 0.00042402378498 0.00043790923409 
0.00044934211476 0.00045810999665 0.00046459186655 0.00046909944975 0.00047163829295 0.00047262872327 0.0004721358094 0.00047028928136 0.00046746075975 
0.00046365370137 0.00045904677748 0.00045387917266 0.00044820877277 0.00044220391178 0.0004359904631 0.00042966869604 0.00042335121491 0.00041714929472 
0.0004111520354 0.00040540688023 0.00040003605452 0.00039508190098 0.00039057597444 0.00038661865366 0.00038318591433 0.00038034637864 0.00037814689141 
0.00037650259467 0.00037551759797 0.0003751788248 0.00037538744095 0.00037621175246 0.00037757456545 0.00037943203992 0.00038177851553 0.00038449843231 
0.00038756533311 0.00039091467291 0.00039442229683 0.00039802077349 0.00040160921468 0.00040508087947 0.00040829679181 0.00041116600867 0.00041352861742 
0.00041520940678 0.00041618254338 0.00042402348087 0.0004379101464 0.00044934241887 0.00045810969254 0.00046459156245 0.00046909823333 0.00047163768474 
0.00047262872327 0.00047213520118 0.00047028806494 0.00046746015154 0.00046365370137 0.00045904738569 0.00045388008497 0.00044820846867 0.00044220360768 
0.0004359904631 0.00042966808783 0.0004233506067 0.00041714899061 0.0004111520354 0.00040540718434 0.00040003635863 0.00039508190098 0.00039057567034 
0.00038661834956 0.00038318591433 0.00038034637864 0.00037814719551 0.00037650289877 0.00037551790208 0.0003751791289 0.00037538713685 0.00037621114425 
0.00037757456545 0.00037943234403 0.00038177881964 0.00038449904052 0.00038756594132 0.00039091467291 0.00039442168862 0.00039802046938 0.00040160951878 