# vtk DataFile Version 4.0
vtk output
ASCII
DATASET STRUCTURED_GRID
DIMENSIONS 50 1 50
POINTS 2500 float
0 0 0 0.0204082 0 0 0.0408163 0 0 
0.0612245 0 0 0.0816327 0 0 0.102041 0 0 
0.122449 0 0 0.142857 0 0 0.163265 0 0 
0.183673 0 0 0.204082 0 0 0.22449 0 0 
0.244898 0 0 0.265306 0 0 0.285714 0 0 
0.306122 0 0 0.326531 0 0 0.346939 0 0 
0.367347 0 0 0.387755 0 0 0.408163 0 0 
0.428571 0 0 0.44898 0 0 0.469388 0 0 
0.489796 0 0 0.510204 0 0 0.530612 0 0 
0.55102 0 0 0.571429 0 0 0.591837 0 0 
0.612245 0 0 0.632653 0 0 0.653061 0 0 
0.673469 0 0 0.693878 0 0 0.714286 0 0 
0.734694 0 0 0.755102 0 0 0.77551 0 0 
0.795918 0 0 0.816327 0 0 0.836735 0 0 
0.857143 0 0 0.877551 0 0 0.897959 0 0 
0.918367 0 0 0.938776 0 0 0.959184 0 0 
0.979592 0 0 1 0 0 0 0.0204082 0 
0.0204082 0.0199426 0 0.0408163 0.0195064 0 0.0612245 0.0191036 0 
0.0816327 0.0187401 0 0.102041 0.018404 0 0.122449 0.0181029 0 
0.142857 0.017834 0 0.163265 0.0175905 0 0.183673 0.0173828 0 
0.204082 0.0172009 0 0.22449 0.0170435 0 0.244898 0.016919 0 
0.265306 0.0168157 0 0.285714 0.0167375 0 0.306122 0.0166854 0 
0.326531 0.016652 0 0.346939 0.0166432 0 0.367347 0.0166544 0 
0.387755 0.0166819 0 0.408163 0.0167323 0 0.428571 0.0167973 0 
0.44898 0.0168773 0 0.469388 0.0169749 0 0.489796 0.0170836 0 
0.510204 0.0172057 0 0.530612 0.0173394 0 0.55102 0.0174816 0 
0.571429 0.017634 0 0.591837 0.0177932 0 0.612245 0.0179579 0 
0.632653 0.0181286 0 0.653061 0.018302 0 0.673469 0.0184777 0 
0.693878 0.0186541 0 0.714286 0.0188299 0 0.734694 0.0190036 0 
0.755102 0.0191737 0 0.77551 0.0193398 0 0.795918 0.0194981 0 
0.816327 0.0196493 0 0.836735 0.0197922 0 0.857143 0.019922 0 
0.877551 0.0200412 0 0.897959 0.0201463 0 0.918367 0.0202344 0 
0.938776 0.0203084 0 0.959184 0.0203608 0 0.979592 0.0203934 0 
1 0.0204082 0 0 0.0408163 0 0.0204082 0.0398852 0 
0.0408163 0.0390129 0 0.0612245 0.0382072 0 0.0816327 0.0374802 0 
0.102041 0.0368079 0 0.122449 0.0362057 0 0.142857 0.0356681 0 
0.163265 0.0351811 0 0.183673 0.0347657 0 0.204082 0.0344018 0 
0.22449 0.034087 0 0.244898 0.033838 0 0.265306 0.0336315 0 
0.285714 0.0334749 0 0.306122 0.0333707 0 0.326531 0.0333041 0 
0.346939 0.0332865 0 0.367347 0.0333089 0 0.387755 0.0333637 0 
0.408163 0.0334647 0 0.428571 0.0335946 0 0.44898 0.0337547 0 
0.469388 0.0339497 0 0.489796 0.0341673 0 0.510204 0.0344114 0 
0.530612 0.0346789 0 0.55102 0.0349631 0 0.571429 0.0352681 0 
0.591837 0.0355865 0 0.612245 0.0359158 0 0.632653 0.0362572 0 
0.653061 0.036604 0 0.673469 0.0369553 0 0.693878 0.0373081 0 
0.714286 0.0376598 0 0.734694 0.0380073 0 0.755102 0.0383474 0 
0.77551 0.0386797 0 0.795918 0.0389963 0 0.816327 0.0392986 0 
0.836735 0.0395845 0 0.857143 0.0398439 0 0.877551 0.0400825 0 
0.897959 0.0402927 0 0.918367 0.0404688 0 0.938776 0.0406168 0 
0.959184 0.0407215 0 0.979592 0.0407869 0 1 0.0408163 0 
0 0.0612245 0 0.0204082 0.0598278 0 0.0408163 0.0585193 0 
0.0612245 0.0573108 0 0.0816327 0.0562203 0 0.102041 0.0552119 0 
0.122449 0.0543086 0 0.142857 0.0535021 0 0.163265 0.0527716 0 
0.183673 0.0521485 0 0.204082 0.0516028 0 0.22449 0.0511305 0 
0.244898 0.050757 0 0.265306 0.0504472 0 0.285714 0.0502124 0 
0.306122 0.0500561 0 0.326531 0.0499561 0 0.346939 0.0499297 0 
0.367347 0.0499633 0 0.387755 0.0500456 0 0.408163 0.050197 0 
0.428571 0.050392 0 0.44898 0.050632 0 0.469388 0.0509246 0 
0.489796 0.0512509 0 0.510204 0.051617 0 0.530612 0.0520183 0 
0.55102 0.0524447 0 0.571429 0.0529021 0 0.591837 0.0533797 0 
0.612245 0.0538737 0 0.632653 0.0543858 0 0.653061 0.054906 0 
0.673469 0.055433 0 0.693878 0.0559622 0 0.714286 0.0564898 0 
0.734694 0.0570109 0 0.755102 0.0575211 0 0.77551 0.0580195 0 
0.795918 0.0584944 0 0.816327 0.0589479 0 0.836735 0.0593767 0 
0.857143 0.0597659 0 0.877551 0.0601238 0 0.897959 0.060439 0 
0.918367 0.0607033 0 0.938776 0.0609252 0 0.959184 0.0610823 0 
0.979592 0.0611803 0 1 0.0612245 0 0 0.0816327 0 
0.0204082 0.0797705 0 0.0408163 0.0780257 0 0.0612245 0.0764145 0 
0.0816327 0.0749603 0 0.102041 0.0736159 0 0.122449 0.0724115 0 
0.142857 0.0713362 0 0.163265 0.0703622 0 0.183673 0.0695314 0 
0.204082 0.0688037 0 0.22449 0.068174 0 0.244898 0.0676761 0 
0.265306 0.067263 0 0.285714 0.0669499 0 0.306122 0.0667414 0 
0.326531 0.0666081 0 0.346939 0.066573 0 0.367347 0.0666177 0 
0.387755 0.0667274 0 0.408163 0.0669294 0 0.428571 0.0671893 0 
0.44898 0.0675094 0 0.469388 0.0678995 0 0.489796 0.0683345 0 
0.510204 0.0688227 0 0.530612 0.0693578 0 0.55102 0.0699262 0 
0.571429 0.0705362 0 0.591837 0.071173 0 0.612245 0.0718316 0 
0.632653 0.0725144 0 0.653061 0.073208 0 0.673469 0.0739106 0 
0.693878 0.0746162 0 0.714286 0.0753197 0 0.734694 0.0760146 0 
0.755102 0.0766948 0 0.77551 0.0773593 0 0.795918 0.0779926 0 
0.816327 0.0785973 0 0.836735 0.079169 0 0.857143 0.0796878 0 
0.877551 0.080165 0 0.897959 0.0805853 0 0.918367 0.0809377 0 
0.938776 0.0812336 0 0.959184 0.081443 0 0.979592 0.0815738 0 
1 0.0816327 0 0 0.102041 0 0.0204082 0.0997131 0 
0.0408163 0.0975322 0 0.0612245 0.0955181 0 0.0816327 0.0937004 0 
0.102041 0.0920198 0 0.122449 0.0905143 0 0.142857 0.0891702 0 
0.163265 0.0879527 0 0.183673 0.0869142 0 0.204082 0.0860046 0 
0.22449 0.0852174 0 0.244898 0.0845951 0 0.265306 0.0840787 0 
0.285714 0.0836874 0 0.306122 0.0834268 0 0.326531 0.0832601 0 
0.346939 0.0832162 0 0.367347 0.0832722 0 0.387755 0.0834093 0 
0.408163 0.0836617 0 0.428571 0.0839866 0 0.44898 0.0843867 0 
0.469388 0.0848744 0 0.489796 0.0854182 0 0.510204 0.0860284 0 
0.530612 0.0866972 0 0.55102 0.0874078 0 0.571429 0.0881702 0 
0.591837 0.0889663 0 0.612245 0.0897895 0 0.632653 0.090643 0 
0.653061 0.0915099 0 0.673469 0.0923883 0 0.693878 0.0932703 0 
0.714286 0.0941496 0 0.734694 0.0950182 0 0.755102 0.0958685 0 
0.77551 0.0966992 0 0.795918 0.0974907 0 0.816327 0.0982466 0 
0.836735 0.0989612 0 0.857143 0.0996098 0 0.877551 0.100206 0 
0.897959 0.100732 0 0.918367 0.101172 0 0.938776 0.101542 0 
0.959184 0.101804 0 0.979592 0.101967 0 1 0.102041 0 
0 0.122449 0 0.0204082 0.119656 0 0.0408163 0.117039 0 
0.0612245 0.114622 0 0.0816327 0.112441 0 0.102041 0.110424 0 
0.122449 0.108617 0 0.142857 0.107004 0 0.163265 0.105543 0 
0.183673 0.104297 0 0.204082 0.103206 0 0.22449 0.102261 0 
0.244898 0.101514 0 0.265306 0.100894 0 0.285714 0.100425 0 
0.306122 0.100112 0 0.326531 0.0999122 0 0.346939 0.0998595 0 
0.367347 0.0999266 0 0.387755 0.100091 0 0.408163 0.100394 0 
0.428571 0.100784 0 0.44898 0.101264 0 0.469388 0.101849 0 
0.489796 0.102502 0 0.510204 0.103234 0 0.530612 0.104037 0 
0.55102 0.104889 0 0.571429 0.105804 0 0.591837 0.106759 0 
0.612245 0.107747 0 0.632653 0.108772 0 0.653061 0.109812 0 
0.673469 0.110866 0 0.693878 0.111924 0 0.714286 0.11298 0 
0.734694 0.114022 0 0.755102 0.115042 0 0.77551 0.116039 0 
0.795918 0.116989 0 0.816327 0.117896 0 0.836735 0.118753 0 
0.857143 0.119532 0 0.877551 0.120248 0 0.897959 0.120878 0 
0.918367 0.121407 0 0.938776 0.12185 0 0.959184 0.122165 0 
0.979592 0.122361 0 1 0.122449 0 0 0.142857 0 
0.0204082 0.139598 0 0.0408163 0.136545 0 0.0612245 0.133725 0 
0.0816327 0.131181 0 0.102041 0.128828 0 0.122449 0.12672 0 
0.142857 0.124838 0 0.163265 0.123134 0 0.183673 0.12168 0 
0.204082 0.120406 0 0.22449 0.119304 0 0.244898 0.118433 0 
0.265306 0.11771 0 0.285714 0.117162 0 0.306122 0.116798 0 
0.326531 0.116564 0 0.346939 0.116503 0 0.367347 0.116581 0 
0.387755 0.116773 0 0.408163 0.117126 0 0.428571 0.117581 0 
0.44898 0.118141 0 0.469388 0.118824 0 0.489796 0.119585 0 
0.510204 0.12044 0 0.530612 0.121376 0 0.55102 0.122371 0 
0.571429 0.123438 0 0.591837 0.124553 0 0.612245 0.125705 0 
0.632653 0.1269 0 0.653061 0.128114 0 0.673469 0.129344 0 
0.693878 0.130578 0 0.714286 0.131809 0 0.734694 0.133026 0 
0.755102 0.134216 0 0.77551 0.135379 0 0.795918 0.136487 0 
0.816327 0.137545 0 0.836735 0.138546 0 0.857143 0.139454 0 
0.877551 0.140289 0 0.897959 0.141024 0 0.918367 0.141641 0 
0.938776 0.142159 0 0.959184 0.142525 0 0.979592 0.142754 0 
1 0.142857 0 0 0.163265 0 0.0204082 0.159541 0 
0.0408163 0.156051 0 0.0612245 0.152829 0 0.0816327 0.149921 0 
0.102041 0.147232 0 0.122449 0.144823 0 0.142857 0.142672 0 
0.163265 0.140724 0 0.183673 0.139063 0 0.204082 0.137607 0 
0.22449 0.136348 0 0.244898 0.135352 0 0.265306 0.134526 0 
0.285714 0.1339 0 0.306122 0.133483 0 0.326531 0.133216 0 
0.346939 0.133146 0 0.367347 0.133235 0 0.387755 0.133455 0 
0.408163 0.133859 0 0.428571 0.134379 0 0.44898 0.135019 0 
0.469388 0.135799 0 0.489796 0.136669 0 0.510204 0.137645 0 
0.530612 0.138716 0 0.55102 0.139852 0 0.571429 0.141072 0 
0.591837 0.142346 0 0.612245 0.143663 0 0.632653 0.145029 0 
0.653061 0.146416 0 0.673469 0.147821 0 0.693878 0.149232 0 
0.714286 0.150639 0 0.734694 0.152029 0 0.755102 0.15339 0 
0.77551 0.154719 0 0.795918 0.155985 0 0.816327 0.157195 0 
0.836735 0.158338 0 0.857143 0.159376 0 0.877551 0.16033 0 
0.897959 0.161171 0 0.918367 0.161875 0 0.938776 0.162467 0 
0.959184 0.162886 0 0.979592 0.163148 0 1 0.163265 0 
0 0.183673 0 0.0204082 0.179484 0 0.0408163 0.175558 0 
0.0612245 0.171933 0 0.0816327 0.168661 0 0.102041 0.165636 0 
0.122449 0.162926 0 0.142857 0.160506 0 0.163265 0.158315 0 
0.183673 0.156446 0 0.204082 0.154808 0 0.22449 0.153391 0 
0.244898 0.152271 0 0.265306 0.151342 0 0.285714 0.150637 0 
0.306122 0.150168 0 0.326531 0.149868 0 0.346939 0.149789 0 
0.367347 0.14989 0 0.387755 0.150137 0 0.408163 0.150591 0 
0.428571 0.151176 0 0.44898 0.151896 0 0.469388 0.152774 0 
0.489796 0.153753 0 0.510204 0.154851 0 0.530612 0.156055 0 
0.55102 0.157334 0 0.571429 0.158706 0 0.591837 0.160139 0 
0.612245 0.161621 0 0.632653 0.163157 0 0.653061 0.164718 0 
0.673469 0.166299 0 0.693878 0.167887 0 0.714286 0.169469 0 
0.734694 0.171033 0 0.755102 0.172563 0 0.77551 0.174059 0 
0.795918 0.175483 0 0.816327 0.176844 0 0.836735 0.17813 0 
0.857143 0.179298 0 0.877551 0.180371 0 0.897959 0.181317 0 
0.918367 0.18211 0 0.938776 0.182776 0 0.959184 0.183247 0 
0.979592 0.183541 0 1 0.183673 0 0 0.204082 0 
[...]
CELL_DATA 2401
FIELD FieldData 1
Weights 1 2401 double
0.00041174264351 0.00040254134772 0.00039398011556 0.000386160147 0.00037902107142 0.00037251870565 0.00036670320586 0.00036147510388 0.00035687140201 
0.00035289573699 0.00034943261456 0.00034655622262 0.00034423201675 0.00034238007901 0.00034104917586 0.00034017724927 0.00033974798776 0.00033977206712 
0.00034016603539 0.00034096155929 0.0003421392599 0.00034361882666 0.00034543111377 0.00034753560642 0.00034989082505 0.00035250118794 0.00035531615659 
0.00035832322586 0.00036150277745 0.00036480745049 0.00036822929906 0.0003717404215 0.00037530225349 0.0003788958877 0.0003824893424 0.00038605657225 
0.0003895645206 0.00039299503616 0.00039630571528 0.00039946482425 0.00040246468157 0.00040524671183 0.00040778758668 0.0004100771186 0.0004120482904 
0.00041370322267 0.0004149911733 0.0004158591085 0.0004163427878 0.00041174264351 0.00040254134772 0.00039398011556 0.000386160147 0.00037902107142 
0.00037251870565 0.00036670320586 0.00036147510388 0.00035687140201 0.00035289573699 0.00034943261456 0.00034655622262 0.00034423201675 0.00034238007901 
0.00034104917586 0.00034017724927 0.00033974798776 0.00033977206712 0.00034016603539 0.00034096155929 0.0003421392599 0.00034361882666 0.00034543111377 
0.00034753560642 0.00034989082505 0.00035250118794 0.00035531615659 0.00035832322586 0.00036150277745 0.00036480745049 0.00036822929906 0.0003717404215 
0.00037530225349 0.0003788958877 0.0003824893424 0.00038605657225 0.0003895645206 0.00039299503616 0.00039630571528 0.00039946482425 0.00040246468157 
0.00040524671183 0.00040778758668 0.0004100771186 0.0004120482904 0.00041370322267 0.0004149911733 0.0004158591085 0.0004163427878 0.00041174264351 
0.00040254136673 0.00039398011556 0.00038616008998 0.00037902105242 0.00037251872466 0.00036670322487 0.00036147508488 0.00035687134499 0.00035289569897 
0.00034943259556 0.0003465561656 0.00034423197874 0.00034238006 0.00034104913784 0.00034017723026 0.00033974794975 0.00033977204812 0.00034016601639 
0.00034096155929 0.00034213931692 0.00034361886467 0.00034543115178 0.00034753562542 0.00034989080605 0.00035250116893 0.00035531615659 0.00035832320685 
0.00036150275845 0.00036480743149 0.00036822926105 0.00037174038349 0.00037530225349 0.00037889590671 0.00038248932339 0.00038605655324 0.0003895645206 
0.00039299501715 0.00039630565826 0.00039946476723 0.00040246466256 0.00040524673084 0.0004077876437 0.00041007717562 0.00041204834742 0.00041370324167 
0.0004149911733 0.00041585912751 0.00041634280681 0.00041174264351 0.00040254132872 0.00039398011556 0.00038616020402 0.00037902109043 0.00037251868665 
0.00036670318686 0.00036147512289 0.00035687145903 0.000352895775 0.00034943263357 0.00034655627964 0.00034423205477 0.00034238009801 0.00034104921387 
0.00034017726828 0.00033974802577 0.00033977208613 0.0003401660544 0.00034096155929 0.00034213920288 0.00034361878865 0.00034543107575 0.00034753558741 
0.00034989084406 0.00035250120694 0.00035531615659 0.00035832324487 0.00036150279646 0.0003648074695 0.00036822933707 0.00037174045952 0.00037530225349 
0.0003788958687 0.0003824893614 0.00038605659126 0.0003895645206 0.00039299505517 0.00039630577229 0.00039946488127 0.00040246470058 0.00040524669283 
0.00040778752966 0.00041007706158 0.00041204823338 0.00041370320366 0.0004149911733 0.0004158590895 0.0004163427688 0.00041174271954 0.00040254140474 
0.00039398011556 0.000386160128 0.00037902109043 0.00037251872466 0.00036670322487 0.00036147508488 0.00035687134499 0.00035289569897 0.00034943259556 
0.0003465561656 0.00034423201675 0.00034238006 0.00034104909983 0.00034017723026 0.00033974794975 0.00033977208613 0.0003401660544 0.00034096155929 
0.00034213931692 0.00034361886467 0.00034543115178 0.00034753566344 0.00034989080605 0.00035250109291 0.00035531611858 0.00035832316884 0.00036150275845 
0.0003648074695 0.00036822926105 0.00037174038349 0.0003753022915 0.00037889594472 0.0003824893614 0.00038605659126 0.0003895645206 0.00039299505517 
0.00039630569627 0.00039946476723 0.00040246466256 0.00040524676885 0.0004077876437 0.00041007717562 0.00041204838543 0.00041370324167 0.00041499113529 
0.00041585905148 0.00041634280681 0.00041174256749 0.00040254132872 0.00039398011556 0.00038616005197 0.0003790210144 0.00037251872466 0.00036670322487 
0.00036147508488 0.00035687134499 0.00035289569897 0.00034943259556 0.0003465561656 0.00034423194073 0.00034238006 0.00034104917586 0.00034017723026 
0.00033974794975 0.0003397720101 0.00034016597837 0.00034096155929 0.00034213931692 0.00034361886467 0.00034543115178 0.00034753558741 0.00034989080605 
0.00035250124496 0.00035531619461 0.00035832324487 0.00036150275845 0.00036480739347 0.00036822926105 0.00037174038349 0.00037530221548 0.0003788958687 
0.00038248928538 0.00038605651523 0.0003895645206 0.00039299497914 0.00039630562024 0.00039946476723 0.00040246466256 0.00040524669283 0.0004077876437 
0.00041007717562 0.00041204830941 0.00041370324167 0.00041499121131 0.00041585920354 0.00041634280681 0.00041174279557 0.00040254148077 0.00039398019159 
0.00038616020402 0.00037902116645 0.00037251872466 0.00036670314884 0.00036147508488 0.00035687142102 0.00035289569897 0.00034943259556 0.00034655631765 
0.00034423209278 0.00034238013603 0.00034104917586 0.00034017723026 0.00033974802577 0.00033977208613 0.0003401660544 0.00034096155929 0.00034213916487 
0.00034361878865 0.00034543107575 0.00034753558741 0.00034989080605 0.00035250109291 0.00035531611858 0.00035832316884 0.00036150275845 0.00036480754552 
0.0003682294131 0.00037174045952 0.00037530221548 0.00037889594472 0.0003824893614 0.00038605651523 0.0003895645206 0.00039299497914 0.00039630562024 
0.00039946484325 0.00040246473859 0.00040524676885 0.0004077876437 0.00041007709959 0.00041204823338 0.00041370324167 0.00041499113529 0.00041585905148 
0.00041634288283 0.00041174249146 0.00040254117666 0.00039398003953 0.00038616020402 0.0003790210144 0.00037251864863 0.00036670322487 0.0003614751609 
0.00035687149705 0.00035289585103 0.00034943267158 0.00034655624162 0.00034423201675 0.00034238006 0.00034104925188 0.00034017730629 0.00033974802577 
0.00033977208613 0.0003401660544 0.00034096155929 0.00034213924089 0.00034361878865 0.00034543107575 0.00034753558741 0.00034989088207 0.00035250132098 
0.00035531619461 0.00035832332089 0.00036150283447 0.00036480739347 0.00036822926105 0.00037174045952 0.0003753022915 0.00037889579267 0.0003824893614 
0.00038605666728 0.0003895645206 0.00039299513119 0.00039630592435 0.00039946491928 0.00040246466256 0.0004052466168 0.00040778741563 0.00041007702357 
0.00041204823338 0.00041370316565 0.00041499121131 0.00041585912751 0.00041634265476 0.00041174264351 0.00040254132872 0.00039398003953 0.00038616005197 
0.00037902116645 0.00037251880069 0.00036670322487 0.00036147508488 0.00035687134499 0.00035289562295 0.00034943251953 0.00034655608957 0.00034423201675 
0.00034238006 0.00034104894778 0.00034017707821 0.00033974787372 0.00033977216216 0.00034016613042 0.00034096155929 0.00034213931692 0.0003436189407 
0.00034543115178 0.00034753566344 0.00034989080605 0.00035250094085 0.00035531604255 0.00035832316884 0.00036150275845 0.0003648074695 0.00036822926105 
0.00037174030746 0.0003753022915 0.00037889609677 0.0003824893614 0.00038605651523 0.0003895645206 0.00039299497914 0.00039630562024 0.00039946476723 
0.00040246466256 0.00040524676885 0.00040778771973 0.00041007732767 0.00041204853748 0.0004137033177 0.00041499121131 0.00041585912751 0.00041634280681 
0.00041174279557 0.00040254148077 0.00039398019159 0.00038616020402 0.0003790210144 0.00037251864863 0.00036670322487 0.00036147508488 0.00035687134499 
0.000352895775 0.00034943267158 0.00034655624162 0.00034423201675 0.00034238006 0.00034104925188 0.00034017738232 0.00033974802577 0.0003397720101 
0.00034016597837 0.00034096155929 0.00034213931692 0.00034361878865 0.00034543115178 0.00034753566344 0.00034989080605 0.00035250124496 0.00035531619461 
0.00035832316884 0.00036150275845 0.0003648074695 0.00036822926105 0.00037174045952 0.0003753022915 0.00037889579267 0.0003824893614 0.00038605666728 
0.0003895645206 0.00039299513119 0.00039630577229 0.00039946476723 0.00040246466256 0.00040524676885 0.00040778756768 0.00041007702357 0.00041204823338 
0.00041370316565 0.00041499105926 0.00041585897546 0.00041634280681 0.00041174249146 0.00040254132872 0.00039398019159 0.00038616020402 0.00037902116645 
0.00037251880069 0.00036670322487 0.00036147508488 0.00035687134499 0.00035289562295 0.00034943251953 0.00034655624162 0.00034423201675 0.00034238006 
0.00034104909983 0.00034017707821 0.00033974787372 0.0003397720101 0.00034016597837 0.00034096155929 0.00034213931692 0.00034361878865 0.00034543099973 
0.00034753551138 0.00034989080605 0.00035250124496 0.00035531619461 0.00035832332089 0.00036150275845 0.00036480731745 0.00036822926105 0.00037174030746 
0.00037530213945 0.00037889594472 0.0003824893614 0.00038605651523 0.0003895645206 0.00039299497914 0.00039630562024 0.00039946476723 0.00040246466256 
0.0004052466168 0.00040778756768 0.00041007717562 0.00041204823338 0.00041370316565 0.00041499121131 0.00041585912751 0.00041634265476 0.00041174264351 
0.00040254132872 0.00039398003953 0.00038615989992 0.00037902086235 0.00037251864863 0.00036670322487 0.00036147508488 0.00035687134499 0.000352895775 
0.00034943267158 0.00034655608957 0.0003442318647 0.00034238006 0.00034104925188 0.00034017738232 0.00033974802577 0.0003397720101 0.00034016597837 
0.00034096155929 0.00034213931692 0.0003436189407 0.00034543130383 0.00034753566344 0.00034989080605 0.00035250124496 0.00035531619461 0.00035832316884 
0.00036150275845 0.0003648074695 0.00036822926105 0.00037174045952 0.0003753022915 0.00037889579267 0.00038248920935 0.00038605651523 0.0003895645206 
0.00039299497914 0.00039630562024 0.00039946476723 0.00040246466256 0.00040524676885 0.00040778771973 0.00041007717562 0.00041204838543 0.0004137033177 
0.00041499121131 0.00041585927956 0.00041634295886 0.00041174249146 0.00040254117666 0.00039398003953 0.00038616020402 0.00037902116645 0.00037251880069 
0.00036670322487 0.00036147508488 0.00035687149705 0.000352895775 0.00034943267158 0.00034655639367 0.00034423216881 0.00034238021205 0.00034104925188 
0.00034017723026 0.00033974787372 0.0003397720101 0.00034016613042 0.00034096171134 0.00034213916487 0.0003436186366 0.00034543099973 0.00034753566344 
0.0003498909581 0.00035250109291 0.00035531604255 0.00035832316884 0.00036150275845 0.0003648074695 0.00036822926105 0.00037174045952 0.0003753022915 
0.00037889594472 0.00038248951346 0.00038605666728 0.0003895645206 0.00039299497914 0.00039630562024 0.00039946476723 0.00040246481462 0.00040524692091 
0.00040778756768 0.00041007717562 0.00041204823338 0.00041370301359 0.00041499121131 0.00041585912751 0.00041634265476 0.00041174309967 0.00040254178487 
0.00039398034364 0.00038616020402 0.00037902116645 0.00037251864863 0.00036670307282 0.00036147508488 0.00035687134499 0.00035289562295 0.00034943251953 
0.00034655624162 0.00034423201675 0.00034238006 0.00034104909983 0.00034017723026 0.00033974817783 0.00033977216216 0.00034016597837 0.00034096140724 
0.00034213916487 0.0003436189407 0.00034543115178 0.00034753551138 0.00034989065399 0.00035250109291 0.00035531619461 0.00035832316884 0.00036150275845 
0.00036480762155 0.00036822956515 0.00037174045952 0.00037530213945 0.00037889594472 0.00038248920935 0.00038605636318 0.0003895645206 0.00039299497914 
0.00039630562024 0.00039946491928 0.00040246466256 0.0004052466168 0.00040778771973 0.00041007702357 0.00041204823338 0.00041370346975 0.00041499105926 
0.00041585897546 0.00041634311091 0.00041174249146 0.00040254117666 0.00039398003953 0.00038616020402 0.00037902116645 0.00037251895274 0.00036670337692 
0.00036147508488 0.00035687134499 0.00035289562295 0.00034943236748 0.00034655608957 0.00034423216881 0.00034238006 0.00034104909983 0.00034017723026 
0.00033974787372 0.00033977216216 0.00034016597837 0.00034096140724 0.00034213946897 0.00034361909275 0.00034543130383 0.00034753581549 0.00034989111015 
0.00035250124496 0.00035531619461 0.00035832332089 0.00036150275845 0.0003648074695 0.00036822910899 0.00037174030746 0.0003753022915 0.00037889579267 
0.00038248951346 0.00038605666728 0.0003895645206 0.0003929954353 0.00039630592435 0.00039946461517 0.00040246466256 0.0004052466168 0.00040778741563 
0.00041007732767 0.00041204853748 0.00041370316565 0.00041499105926 0.00041585897546 0.0004163425027 0.00041174249146 0.00040254117666 0.00039398003953 
0.00038616020402 0.00037902086235 0.00037251834453 0.00036670307282 0.00036147523693 0.0003568716491 0.00035289607911 0.00034943297569 0.00034655639367 
0.0003442318647 0.00034238006 0.00034104940394 0.00034017738232 0.00033974817783 0.0003397720101 0.00034016613042 0.00034096171134 0.00034213901282 
0.00034361848454 0.00034543084767 0.00034753535933 0.00034989065399 0.00035250139701 0.00035531619461 0.00035832332089 0.0003615029105 0.00036480731745 
0.0003682294131 0.00037174061157 0.0003753022915 0.00037889579267 0.00038248920935 0.00038605666728 0.0003895645206 0.00039299482709 0.00039630592435 
0.00039946522338 0.00040246466256 0.0004052466168 0.00040778741563 0.00041007671946 0.00041204792927 0.00041370316565 0.00041499136336 0.00041585927956 
0.00041634280681 0.00041174279557 0.00040254148077 0.00039398003953 0.00038615989992 0.00037902116645 0.00037251895274 0.00036670337692 0.00036147493282 
0.00035687104089 0.00035289547089 0.00034943267158 0.00034655608957 0.0003442318647 0.00034238006 0.00034104879573 0.00034017692616 0.00033974772167 
0.00033977185805 0.00034016597837 0.00034096171134 0.00034213962103 0.00034361909275 0.00034543115178 0.00034753566344 0.00034989065399 0.0003525007888 
0.00035531619461 0.00035832332089 0.0003615029105 0.00036480762155 0.00036822910899 0.00037174030746 0.00037530259561 0.00037889640088 0.00038248951346 
0.00038605636318 0.0003895645206 0.00039299513119 0.00039630562024 0.00039946491928 0.00040246496667 0.00040524692091 0.00040778771973 0.00041007732767 
0.00041204853748 0.00041370316565 0.00041499105926 0.00041585897546 0.00041634280681 0.00041174249146 0.00040254117666 0.00039398003953 0.00038616020402 
0.00037902116645 0.00037251864863 0.00036670307282 0.00036147523693 0.0003568716491 0.000352895775 0.00034943236748 0.00034655608957 0.00034423216881 
0.00034238006 0.00034104909983 0.00034017723026 0.00033974802577 0.00033977246626 0.00034016628248 0.00034096140724 0.00034213901282 0.00034361878865 
0.00034543115178 0.00034753566344 0.0003498909581 0.00035250109291 0.0003553158905 0.00035832301679 0.0003615026064 0.00036480731745 0.0003682294131 
0.00037174030746 0.0003753019874 0.00037889579267 0.00038248920935 0.00038605666728 0.0003895645206 0.00039299482709 0.00039630562024 0.00039946461517 
0.00040246435846 0.0004052466168 0.00040778771973 0.00041007732767 0.00041204853748 0.00041370346975 0.00041499136336 0.00041585927956 0.00041634280681 
0.00041174279557 0.00040254178487 0.00039398034364 0.00038616020402 0.00037902116645 0.00037251864863 0.00036670307282 0.00036147493282 0.00035687104089 
0.00035289547089 0.00034943267158 0.00034655639367 0.0003442318647 0.00034238006 0.00034104940394 0.00034017753437 0.00033974802577 0.00033977185805 
0.00034016597837 0.00034096171134 0.00034213931692 0.00034361848454 0.00034543115178 0.00034753566344 0.00034989065399 0.00035250139701 0.00035531649871 
0.00035832332089 0.0003615026064 0.00036480731745 0.0003682294131 0.00037174061157 0.0003753022915 0.00037889579267 0.00038248920935 0.00038605636318 
0.0003895645206 0.00039299513119 0.00039630562024 0.00039946491928 0.00040246496667 0.00040524692091 0.00040778771973 0.00041007702357 0.00041204792927 
0.00041370286154 0.00041499105926 0.00041585927956 0.00041634280681 0.00041174279557 0.00040254117666 0.00039398003953 0.00038616020402 0.00037902086235 
0.00037251864863 0.00036670337692 0.00036147523693 0.0003568716491 0.00035289607911 0.00034943267158 0.00034655608957 0.00034423216881 0.00034238006 
0.00034104909983 0.00034017723026 0.00033974802577 0.00033977216216 0.00034016597837 0.00034096140724 0.00034213931692 0.00034361909275 0.00034543115178 
0.00034753566344 0.0003498909581 0.00035250109291 0.0003553158905 0.00035832301679 0.0003615029105 0.00036480762155 0.00036822910899 0.00037174030746 
0.0003753022915 0.00037889579267 0.00038248951346 0.00038605697139 0.0003895645206 0.00039299513119 0.00039630592435 0.00039946461517 0.00040246435846 
0.0004052466168 0.00040778741563 0.00041007702357 0.00041204853748 0.00041370346975 0.00041499105926 0.00041585867135 0.00041634280681 0.00041174249146 
0.00040254117666 0.00039398003953 0.00038616020402 0.00037902116645 0.00037251864863 0.00036670307282 0.00036147493282 0.00035687134499 0.000352895775 
0.00034943267158 0.00034655639367 0.00034423216881 0.0003423803641 0.00034104940394 0.00034017723026 0.00033974802577 0.00033977216216 0.00034016597837 
0.00034096140724 0.00034213901282 0.00034361878865 0.00034543115178 0.00034753535933 0.00034989065399 0.00035250139701 0.00035531649871 0.00035832332089 
0.0003615026064 0.00036480731745 0.0003682294131 0.00037174061157 0.0003753022915 0.00037889609677 0.00038248951346 0.00038605636318 0.0003895645206 
0.00039299513119 0.00039630562024 0.00039946491928 0.00040246496667 0.0004052466168 0.00040778741563 0.00041007702357 0.00041204823338 0.00041370316565 
0.00041499105926 0.00041585927956 0.00041634280681 0.00041174249146 0.00040254148077 0.00039398034364 0.00038616020402 0.00037902116645 0.00037251895274 
0.00036670337692 0.00036147523693 0.00035687134499 0.00035289547089 0.00034943236748 0.00034655608957 0.0003442318647 0.00034237975589 0.00034104879573 
0.00034017692616 0.00033974772167 0.00033977185805 0.00034016597837 0.00034096171134 0.00034213962103 0.00034361878865 0.00034543084767 0.00034753566344 
0.0003498909581 0.00035250109291 0.0003553158905 0.00035832332089 0.0003615029105 0.00036480731745 0.00036822910899 0.00037174000336 0.0003753019874 
0.00037889579267 0.00038248920935 0.00038605666728 0.0003895645206 0.00039299482709 0.00039630562024 0.00039946461517 0.00040246435846 0.0004052466168 
0.00040778771973 0.00041007732767 0.00041204823338 0.00041370316565 0.00041499136336 0.00041585897546 0.0004163425027 0.00041174279557 0.00040254117666 
0.00039398003953 0.00038616020402 0.00037902116645 0.00037251864863 0.00036670307282 0.00036147523693 0.0003568716491 0.000352895775 0.00034943267158 
0.00034655639367 0.00034423216881 0.00034238006 0.00034104909983 0.00034017723026 0.00033974802577 0.00033977216216 0.00034016597837 0.00034096140724 
0.00034213901282 0.00034361878865 0.00034543115178 0.00034753566344 0.0003498909581 0.00035250109291 0.00035531619461 0.00035832332089 0.0003615029105 
0.00036480762155 0.0003682294131 0.00037174061157 0.0003753022915 0.00037889579267 0.00038248920935 0.00038605636318 0.0003895645206 0.00039299513119 
0.00039630562024 0.00039946491928 0.00040246496667 0.00040524692091 0.00040778771973 0.00041007732767 0.00041204853748 0.00041370316565 0.00041499105926 
0.00041585927956 0.00041634311091 0.00041174249146 0.00040254148077 0.00039398003953 0.00038615959581 0.00037902055824 0.00037251864863 0.00036670337692 
0.00036147493282 0.00035687104089 0.000352895775 0.00034943267158 0.00034655578546 0.0003442315606 0.00034238006 0.00034104940394 0.00034017753437 
0.00033974802577 0.00033977185805 0.00034016597837 0.00034096171134 0.00034213962103 0.00034361909275 0.00034543145589 0.00034753566344 0.00034989065399 
0.00035250139701 0.00035531619461 0.00035832301679 0.0003615026064 0.00036480731745 0.00036822910899 0.00037174030746 0.0003753022915 0.00037889579267 
0.00038248920935 0.00038605666728 0.0003895645206 0.00039299482709 0.00039630562024 0.00039946461517 0.00040246435846 0.0004052466168 0.00040778771973 