# vtk DataFile Version 4.0
vtk output
ASCII
DATASET STRUCTURED_GRID
DIMENSIONS 50 1 50
POINTS 2500 float
0 0 0 0.0204082 0 0 0.0408163 0 0 
0.0612245 0 0 0.0816327 0 0 0.102041 0 0 
0.122449 0 0 0.142857 0 0 0.163265 0 0 
0.183673 0 0 0.204082 0 0 0.22449 0 0 
0.244898 0 0 0.265306 0 0 0.285714 0 0 
0.306122 0 0 0.326531 0 0 0.346939 0 0 
0.367347 0 0 0.387755 0 0 0.408163 0 0 
0.428571 0 0 0.44898 0 0 0.469388 0 0 
0.489796 0 0 0.510204 0 0 0.530612 0 0 
0.55102 0 0 0.571429 0 0 0.591837 0 0 
0.612245 0 0 0.632653 0 0 0.653061 0 0 
0.673469 0 0 0.693878 0 0 0.714286 0 0 
0.734694 0 0 0.755102 0 0 0.77551 0 0 
0.795918 0 0 0.816327 0 0 0.836735 0 0 
0.857143 0 0 0.877551 0 0 0.897959 0 0 
0.918367 0 0 0.938776 0 0 0.959184 0 0 
0.979592 0 0 1 0 0 0 0.0204082 0 
0.0204082 0.0212083 0 0.0408163 0.021966 0 0.0612245 0.022675 0 
0.0816327 0.0233252 0 0.102041 0.0239336 0 0.122449 0.0244877 0 
0.142857 0.0249906 0 0.163265 0.0254529 0 0.183673 0.0258565 0 
0.204082 0.0262171 0 0.22449 0.0265363 0 0.244898 0.0267987 0 
0.265306 0.0270239 0 0.285714 0.0272048 0 0.306122 0.0273383 0 
0.326531 0.0274374 0 0.346939 0.0274907 0 0.367347 0.0275062 0 
0.387755 0.0274905 0 0.408163 0.0274296 0 0.428571 0.02734 0 
0.44898 0.0272199 0 0.469388 0.0270638 0 0.489796 0.0268842 0 
0.510204 0.0266761 0 0.530612 0.0264424 0 0.55102 0.0261901 0 
0.571429 0.0259138 0 0.591837 0.0256214 0 0.612245 0.0253155 0 
0.632653 0.0249935 0 0.653061 0.0246634 0 0.673469 0.0243256 0 
0.693878 0.0239827 0 0.714286 0.0236382 0 0.734694 0.0232947 0 
0.755102 0.0229556 0 0.77551 0.0226222 0 0.795918 0.0223015 0 
0.816327 0.0219933 0 0.836735 0.0217001 0 0.857143 0.0214318 0 
0.877551 0.0211837 0 0.897959 0.0209637 0 0.918367 0.0207781 0 
0.938776 0.0206215 0 0.959184 0.0205098 0 0.979592 0.0204398 0 
1 0.0204082 0 0 0.0408163 0 0.0204082 0.0424165 0 
0.0408163 0.043932 0 0.0612245 0.04535 0 0.0816327 0.0466504 0 
0.102041 0.0478671 0 0.122449 0.0489753 0 0.142857 0.0499812 0 
0.163265 0.0509057 0 0.183673 0.051713 0 0.204082 0.0524341 0 
0.22449 0.0530725 0 0.244898 0.0535974 0 0.265306 0.0540478 0 
0.285714 0.0544095 0 0.306122 0.0546766 0 0.326531 0.0548748 0 
0.346939 0.0549815 0 0.367347 0.0550123 0 0.387755 0.0549809 0 
0.408163 0.0548593 0 0.428571 0.0546799 0 0.44898 0.0544398 0 
0.469388 0.0541277 0 0.489796 0.0537683 0 0.510204 0.0533522 0 
0.530612 0.0528848 0 0.55102 0.0523801 0 0.571429 0.0518276 0 
0.591837 0.0512427 0 0.612245 0.0506309 0 0.632653 0.049987 0 
0.653061 0.0493269 0 0.673469 0.0486513 0 0.693878 0.0479654 0 
0.714286 0.0472765 0 0.734694 0.0465893 0 0.755102 0.0459112 0 
0.77551 0.0452444 0 0.795918 0.044603 0 0.816327 0.0439867 0 
0.836735 0.0434002 0 0.857143 0.0428636 0 0.877551 0.0423674 0 
0.897959 0.0419275 0 0.918367 0.0415562 0 0.938776 0.041243 0 
0.959184 0.0410196 0 0.979592 0.0408796 0 1 0.0408163 0 
0 0.0612245 0 0.0204082 0.0636248 0 0.0408163 0.065898 0 
0.0612245 0.068025 0 0.0816327 0.0699756 0 0.102041 0.0718007 0 
0.122449 0.073463 0 0.142857 0.0749718 0 0.163265 0.0763586 0 
0.183673 0.0775694 0 0.204082 0.0786512 0 0.22449 0.0796088 0 
0.244898 0.0803961 0 0.265306 0.0810718 0 0.285714 0.0816143 0 
0.306122 0.0820149 0 0.326531 0.0823121 0 0.346939 0.0824722 0 
0.367347 0.0825185 0 0.387755 0.0824714 0 0.408163 0.0822889 0 
0.428571 0.0820199 0 0.44898 0.0816597 0 0.469388 0.0811915 0 
0.489796 0.0806525 0 0.510204 0.0800284 0 0.530612 0.0793272 0 
0.55102 0.0785702 0 0.571429 0.0777413 0 0.591837 0.0768641 0 
0.612245 0.0759464 0 0.632653 0.0749805 0 0.653061 0.0739903 0 
0.673469 0.0729769 0 0.693878 0.0719481 0 0.714286 0.0709147 0 
0.734694 0.069884 0 0.755102 0.0688668 0 0.77551 0.0678665 0 
0.795918 0.0669045 0 0.816327 0.06598 0 0.836735 0.0651002 0 
0.857143 0.0642954 0 0.877551 0.0635511 0 0.897959 0.0628912 0 
0.918367 0.0623343 0 0.938776 0.0618645 0 0.959184 0.0615295 0 
0.979592 0.0613195 0 1 0.0612245 0 0 0.0816327 0 
0.0204082 0.084833 0 0.0408163 0.087864 0 0.0612245 0.0907001 0 
0.0816327 0.0933008 0 0.102041 0.0957343 0 0.122449 0.0979506 0 
0.142857 0.0999624 0 0.163265 0.101811 0 0.183673 0.103426 0 
0.204082 0.104868 0 0.22449 0.106145 0 0.244898 0.107195 0 
0.265306 0.108096 0 0.285714 0.108819 0 0.306122 0.109353 0 
0.326531 0.10975 0 0.346939 0.109963 0 0.367347 0.110025 0 
0.387755 0.109962 0 0.408163 0.109719 0 0.428571 0.10936 0 
0.44898 0.10888 0 0.469388 0.108255 0 0.489796 0.107537 0 
0.510204 0.106704 0 0.530612 0.10577 0 0.55102 0.10476 0 
0.571429 0.103655 0 0.591837 0.102485 0 0.612245 0.101262 0 
0.632653 0.099974 0 0.653061 0.0986537 0 0.673469 0.0973025 0 
0.693878 0.0959308 0 0.714286 0.0945529 0 0.734694 0.0931787 0 
0.755102 0.0918225 0 0.77551 0.0904887 0 0.795918 0.0892059 0 
0.816327 0.0879733 0 0.836735 0.0868003 0 0.857143 0.0857272 0 
0.877551 0.0847349 0 0.897959 0.083855 0 0.918367 0.0831125 0 
0.938776 0.0824859 0 0.959184 0.0820393 0 0.979592 0.0817593 0 
1 0.0816327 0 0 0.102041 0 0.0204082 0.106041 0 
0.0408163 0.10983 0 0.0612245 0.113375 0 0.0816327 0.116626 0 
0.102041 0.119668 0 0.122449 0.122438 0 0.142857 0.124953 0 
0.163265 0.127264 0 0.183673 0.129282 0 0.204082 0.131085 0 
0.22449 0.132681 0 0.244898 0.133993 0 0.265306 0.13512 0 
0.285714 0.136024 0 0.306122 0.136692 0 0.326531 0.137187 0 
0.346939 0.137454 0 0.367347 0.137531 0 0.387755 0.137452 0 
0.408163 0.137148 0 0.428571 0.1367 0 0.44898 0.1361 0 
0.469388 0.135319 0 0.489796 0.134421 0 0.510204 0.133381 0 
0.530612 0.132212 0 0.55102 0.13095 0 0.571429 0.129569 0 
0.591837 0.128107 0 0.612245 0.126577 0 0.632653 0.124967 0 
0.653061 0.123317 0 0.673469 0.121628 0 0.693878 0.119913 0 
0.714286 0.118191 0 0.734694 0.116473 0 0.755102 0.114778 0 
0.77551 0.113111 0 0.795918 0.111507 0 0.816327 0.109967 0 
0.836735 0.1085 0 0.857143 0.107159 0 0.877551 0.105919 0 
0.897959 0.104819 0 0.918367 0.103891 0 0.938776 0.103107 0 
0.959184 0.102549 0 0.979592 0.102199 0 1 0.102041 0 
0 0.122449 0 0.0204082 0.12725 0 0.0408163 0.131796 0 
0.0612245 0.13605 0 0.0816327 0.139951 0 0.102041 0.143601 0 
0.122449 0.146926 0 0.142857 0.149944 0 0.163265 0.152717 0 
0.183673 0.155139 0 0.204082 0.157302 0 0.22449 0.159218 0 
0.244898 0.160792 0 0.265306 0.162144 0 0.285714 0.163229 0 
0.306122 0.16403 0 0.326531 0.164624 0 0.346939 0.164944 0 
0.367347 0.165037 0 0.387755 0.164943 0 0.408163 0.164578 0 
0.428571 0.16404 0 0.44898 0.163319 0 0.469388 0.162383 0 
0.489796 0.161305 0 0.510204 0.160057 0 0.530612 0.158654 0 
0.55102 0.15714 0 0.571429 0.155483 0 0.591837 0.153728 0 
0.612245 0.151893 0 0.632653 0.149961 0 0.653061 0.147981 0 
0.673469 0.145954 0 0.693878 0.143896 0 0.714286 0.141829 0 
0.734694 0.139768 0 0.755102 0.137734 0 0.77551 0.135733 0 
0.795918 0.133809 0 0.816327 0.13196 0 0.836735 0.1302 0 
0.857143 0.128591 0 0.877551 0.127102 0 0.897959 0.125782 0 
0.918367 0.124669 0 0.938776 0.123729 0 0.959184 0.123059 0 
0.979592 0.122639 0 1 0.122449 0 0 0.142857 0 
0.0204082 0.148458 0 0.0408163 0.153762 0 0.0612245 0.158725 0 
0.0816327 0.163276 0 0.102041 0.167535 0 0.122449 0.171414 0 
0.142857 0.174934 0 0.163265 0.17817 0 0.183673 0.180995 0 
0.204082 0.183519 0 0.22449 0.185754 0 0.244898 0.187591 0 
0.265306 0.189167 0 0.285714 0.190433 0 0.306122 0.191368 0 
0.326531 0.192062 0 0.346939 0.192435 0 0.367347 0.192543 0 
0.387755 0.192433 0 0.408163 0.192008 0 0.428571 0.19138 0 
0.44898 0.190539 0 0.469388 0.189447 0 0.489796 0.188189 0 
0.510204 0.186733 0 0.530612 0.185097 0 0.55102 0.18333 0 
0.571429 0.181396 0 0.591837 0.179349 0 0.612245 0.177208 0 
0.632653 0.174954 0 0.653061 0.172644 0 0.673469 0.170279 0 
0.693878 0.167879 0 0.714286 0.165468 0 0.734694 0.163063 0 
0.755102 0.160689 0 0.77551 0.158355 0 0.795918 0.15611 0 
0.816327 0.153953 0 0.836735 0.151901 0 0.857143 0.150023 0 
0.877551 0.148286 0 0.897959 0.146746 0 0.918367 0.145447 0 
0.938776 0.14435 0 0.959184 0.143569 0 0.979592 0.143079 0 
1 0.142857 0 0 0.163265 0 0.0204082 0.169666 0 
0.0408163 0.175728 0 0.0612245 0.1814 0 0.0816327 0.186602 0 
0.102041 0.191469 0 0.122449 0.195901 0 0.142857 0.199925 0 
0.163265 0.203623 0 0.183673 0.206852 0 0.204082 0.209736 0 
0.22449 0.21229 0 0.244898 0.21439 0 0.265306 0.216191 0 
0.285714 0.217638 0 0.306122 0.218706 0 0.326531 0.219499 0 
0.346939 0.219926 0 0.367347 0.220049 0 0.387755 0.219924 0 
0.408163 0.219437 0 0.428571 0.21872 0 0.44898 0.217759 0 
0.469388 0.216511 0 0.489796 0.215073 0 0.510204 0.213409 0 
0.530612 0.211539 0 0.55102 0.20952 0 0.571429 0.20731 0 
0.591837 0.204971 0 0.612245 0.202524 0 0.632653 0.199948 0 
0.653061 0.197307 0 0.673469 0.194605 0 0.693878 0.191862 0 
0.714286 0.189106 0 0.734694 0.186357 0 0.755102 0.183645 0 
0.77551 0.180977 0 0.795918 0.178412 0 0.816327 0.175947 0 
0.836735 0.173601 0 0.857143 0.171454 0 0.877551 0.16947 0 
0.897959 0.16771 0 0.918367 0.166225 0 0.938776 0.164972 0 
0.959184 0.164079 0 0.979592 0.163519 0 1 0.163265 0 
0 0.183673 0 0.0204082 0.190874 0 0.0408163 0.197694 0 
0.0612245 0.204075 0 0.0816327 0.209927 0 0.102041 0.215402 0 
0.122449 0.220389 0 0.142857 0.224915 0 0.163265 0.229076 0 
0.183673 0.232708 0 0.204082 0.235954 0 0.22449 0.238826 0 
0.244898 0.241188 0 0.265306 0.243215 0 0.285714 0.244843 0 
0.306122 0.246045 0 0.326531 0.246936 0 0.346939 0.247417 0 
0.367347 0.247556 0 0.387755 0.247414 0 0.408163 0.246867 0 
0.428571 0.24606 0 0.44898 0.244979 0 0.469388 0.243574 0 
0.489796 0.241957 0 0.510204 0.240085 0 0.530612 0.237982 0 
0.55102 0.235711 0 0.571429 0.233224 0 0.591837 0.230592 0 
0.612245 0.227839 0 0.632653 0.224941 0 0.653061 0.221971 0 
0.673469 0.218931 0 0.693878 0.215844 0 0.714286 0.212744 0 
0.734694 0.209652 0 0.755102 0.206601 0 0.77551 0.2036 0 
0.795918 0.200713 0 0.816327 0.19794 0 0.836735 0.195301 0 
0.857143 0.192886 0 0.877551 0.190653 0 0.897959 0.188674 0 
0.918367 0.187003 0 0.938776 0.185593 0 0.959184 0.184588 0 
0.979592 0.183958 0 1 0.183673 0 0 0.204082 0 
0.0204082 0.212083 0 0.0408163 0.21966 0 0.0612245 0.22675 0 
[...]
CELL_DATA 2401
FIELD FieldData 1
Weights 1 2401 double
0.0004246573314 0.00044055371498 0.00045552066121 0.00046938981329 0.000482232337 0.00049409403513 0.00050488039716 0.00051472895012 0.00052356476645 
0.00053136278936 0.00053829898364 0.00054423437385 0.00054921001161 0.00055335451892 0.00055656171645 0.00055893531444 0.00056049151692 0.00056119264922 
0.00056118995029 0.00056040986456 0.00055887327699 0.00055673319376 0.00055391631606 0.00055048936311 0.00054653320174 0.00054202562163 0.00053706576109 
0.00053167313414 0.00052586849412 0.00051976327842 0.00051335658044 0.0005067031011 0.0004998881419 0.00049294328698 0.00048592758515 0.00047890695582 
0.00047194144555 0.00046507929304 0.00045840452633 0.00045198897992 0.00044585087421 0.0004401209053 0.00043485186482 0.00043007587387 0.00042593709733 
0.00042244591116 0.00041970702744 0.00041785331627 0.00041681595646 0.0004246573314 0.00044055371498 0.00045552066121 0.00046938981329 0.000482232337 
0.00049409403513 0.00050488039716 0.00051472895012 0.00052356476645 0.00053136278936 0.00053829898364 0.00054423437385 0.00054921001161 0.00055335451892 
0.00055656171645 0.00055893531444 0.00056049151692 0.00056119264922 0.00056118995029 0.00056040986456 0.00055887327699 0.00055673319376 0.00055391631606 
0.00055048936311 0.00054653320174 0.00054202562163 0.00053706576109 0.00053167313414 0.00052586849412 0.00051976327842 0.00051335658044 0.0005067031011 
0.0004998881419 0.00049294328698 0.00048592758515 0.00047890695582 0.00047194144555 0.00046507929304 0.00045840452633 0.00045198897992 0.00044585087421 
0.0004401209053 0.00043485186482 0.00043007587387 0.00042593709733 0.00042244591116 0.00041970702744 0.00041785331627 0.00041681595646 0.00042465735041 
0.00044055369597 0.0004555206232 0.00046938975627 0.000482232337 0.00049409405413 0.00050488035915 0.00051472893111 0.00052356470943 0.00053136273234 
0.00053829894563 0.00054423433583 0.00054921001161 0.00055335448091 0.00055656167844 0.00055893525742 0.00056049149791 0.00056119270624 0.0005611899693 
0.00056040992158 0.00055887337202 0.00055673319376 0.00055391631606 0.00055048934411 0.00054653320174 0.00054202571666 0.0005370657991 0.00053167313414 
0.00052586849412 0.00051976327842 0.00051335654242 0.00050670302507 0.00049988810389 0.00049294332499 0.00048592762317 0.00047890701284 0.00047194152158 
0.00046507935006 0.00045840454534 0.00045198897992 0.00044585093123 0.00044012094331 0.00043485186482 0.00043007585487 0.00042593709733 0.00042244594917 
0.00041970704645 0.00041785329726 0.00041681595646 0.0004246573124 0.00044055373399 0.00045552069923 0.00046938987031 0.000482232337 0.00049409401612 
0.00050488043518 0.00051472896912 0.00052356482347 0.00053136284638 0.00053829902166 0.00054423441186 0.00054921001161 0.00055335455693 0.00055656175446 
0.00055893537146 0.00056049153593 0.0005611925922 0.00056118993128 0.00056040980754 0.00055887318195 0.00055673319376 0.00055391631606 0.00055048938212 
0.00054653320174 0.0005420255266 0.00053706572308 0.00053167313414 0.00052586849412 0.00051976327842 0.00051335661845 0.00050670317712 0.00049988817991 
0.00049294324897 0.00048592754714 0.0004789068988 0.00047194136953 0.00046507923602 0.00045840450733 0.00045198897992 0.00044585081719 0.00044012086729 
0.00043485186482 0.00043007589288 0.00042593709733 0.00042244587315 0.00041970700844 0.00041785333528 0.00041681595646 0.00042465738842 0.00044055373399 
0.00045552069923 0.00046938979428 0.000482232337 0.00049409409215 0.00050488043518 0.00051472896912 0.00052356467141 0.00053136269433 0.00053829902166 
0.00054423448788 0.00054921001161 0.00055335440488 0.00055656175446 0.00055893537146 0.00056049153593 0.0005611925922 0.00056118985526 0.00056040988357 
0.00055887333401 0.00055673326979 0.00055391639208 0.00055048930609 0.00054653312571 0.00054202560263 0.00053706572308 0.00053167321016 0.00052586857015 
0.00051976320239 0.0005133564664 0.00050670302507 0.00049988810389 0.00049294332499 0.00048592754714 0.0004789068988 0.00047194152158 0.00046507938807 
0.00045840458335 0.00045198897992 0.00044585089322 0.00044012094331 0.00043485186482 0.00043007589288 0.00042593717336 0.00042244598719 0.00041970704645 
0.00041785329726 0.00041681599448 0.0004246573124 0.00044055365796 0.00045552054717 0.00046938971825 0.000482232337 0.00049409401612 0.00050488028312 
0.0005147288931 0.00052356474744 0.00053136277035 0.0005382988696 0.00054423418378 0.00054921001161 0.00055335455693 0.00055656160241 0.00055893514338 
0.0005604914599 0.00056119282028 0.00056119008334 0.00056040995959 0.00055887341003 0.00055673311774 0.00055391624003 0.00055048938212 0.00054653327776 
0.0005420258307 0.00053706587513 0.00053167305811 0.00052586841809 0.00051976335444 0.00051335661845 0.00050670302507 0.00049988810389 0.00049294332499 
0.00048592769919 0.00047890712688 0.00047194152158 0.00046507931204 0.00045840450733 0.00045198897992 0.00044585096924 0.00044012094331 0.00043485186482 
0.00043007581685 0.0004259370213 0.00042244591116 0.00041970704645 0.00041785329726 0.00041681591845 0.00042465738842 0.00044055373399 0.0004555206232 
0.00046938971825 0.00048223226098 0.00049409401612 0.0005048805112 0.00051472904515 0.00052356474744 0.00053136277035 0.00053829902166 0.00054423448788 
0.00054921001161 0.00055335455693 0.00055656190652 0.00055893544749 0.00056049161195 0.00056119266823 0.00056118993128 0.00056040980754 0.00055887325798 
0.00055673326979 0.00055391639208 0.00055048953417 0.00054653327776 0.0005420255266 0.00053706572308 0.00053167321016 0.00052586857015 0.00051976320239 
0.00051335661845 0.00050670325315 0.00049988810389 0.00049294317294 0.00048592754714 0.00047890697483 0.00047194144555 0.00046507931204 0.00045840465938 
0.00045198905595 0.00044585089322 0.00044012094331 0.00043485186482 0.00043007589288 0.00042593717336 0.00042244598719 0.00041970704645 0.00041785322124 
0.00041681591845 0.00042465723637 0.00044055373399 0.00045552077525 0.00046939002236 0.00048223241303 0.00049409401612 0.00050488035915 0.0005147288931 
0.00052356489949 0.00053136292241 0.00053829902166 0.00054423433583 0.00054921001161 0.00055335455693 0.00055656160241 0.00055893529544 0.0005604914599 
0.00056119251618 0.00056118993128 0.00056040980754 0.00055887310593 0.00055673311774 0.00055391624003 0.00055048923007 0.00054653312571 0.0005420255266 
0.00053706572308 0.00053167305811 0.00052586841809 0.00051976335444 0.00051335661845 0.0005067031011 0.00049988825594 0.00049294332499 0.00048592754714 
0.00047890682277 0.0004719412935 0.00046507915999 0.00045840435527 0.0004519889039 0.00044585074117 0.00044012079126 0.00043485186482 0.00043007589288 
0.0004259370213 0.00042244575911 0.00041970697042 0.00041785344932 0.00041681599448 0.00042465738842 0.00044055373399 0.0004555206232 0.00046938971825 
0.00048223226098 0.00049409401612 0.00050488035915 0.00051472904515 0.00052356489949 0.00053136277035 0.00053829902166 0.00054423448788 0.00054921001161 
0.00055335440488 0.00055656175446 0.00055893529544 0.0005604914599 0.00056119266823 0.00056118993128 0.00056040995959 0.00055887341003 0.00055673326979 
0.00055391639208 0.00055048938212 0.00054653327776 0.0005420258307 0.00053706587513 0.00053167321016 0.00052586857015 0.00051976320239 0.0005133564664 
0.0005067031011 0.00049988810389 0.00049294332499 0.00048592754714 0.00047890682277 0.00047194159761 0.0004650794641 0.00045840450733 0.0004519889039 
0.00044585089322 0.00044012094331 0.00043485186482 0.00043007589288 0.00042593717336 0.00042244606321 0.00041970712248 0.00041785329726 0.00041681599448 
0.00042465738842 0.00044055373399 0.00045552077525 0.00046938987031 0.00048223241303 0.00049409416817 0.0005048805112 0.0005147288931 0.00052356444334 
0.0005313626183 0.00053829902166 0.00054423448788 0.00054921001161 0.00055335440488 0.00055656175446 0.00055893544749 0.00056049161195 0.00056119251618 
0.00056118977923 0.00056040980754 0.00055887325798 0.00055673326979 0.00055391639208 0.00055048923007 0.00054653297366 0.00054202537455 0.00053706557102 
0.00053167321016 0.00052586857015 0.00051976320239 0.0005133564664 0.00050670294904 0.00049988810389 0.00049294332499 0.00048592754714 0.00047890697483 
0.00047194144555 0.00046507931204 0.00045840465938 0.00045198905595 0.00044585089322 0.00044012094331 0.00043485186482 0.00043007589288 0.00042593717336 
0.00042244591116 0.00041970697042 0.00041785329726 0.00041681599448 0.00042465723637 0.00044055373399 0.0004555206232 0.00046938987031 0.00048223226098 
0.00049409386407 0.0005048805112 0.00051472904515 0.00052356489949 0.00053136307446 0.00053829902166 0.00054423403173 0.00054921001161 0.00055335486104 
0.00055656175446 0.00055893529544 0.00056049161195 0.00056119266823 0.00056118993128 0.00056040980754 0.00055887325798 0.00055673326979 0.00055391624003 
0.00055048938212 0.00054653327776 0.0005420258307 0.00053706587513 0.00053167290606 0.00052586841809 0.00051976320239 0.00051335661845 0.00050670325315 
0.00049988810389 0.00049294317294 0.00048592754714 0.00047890697483 0.0004719412935 0.00046507915999 0.00045840450733 0.0004519889039 0.00044585089322 
0.00044012094331 0.00043485186482 0.00043007589288 0.0004259370213 0.00042244591116 0.00041970712248 0.00041785329726 0.00041681584242 0.00042465738842 
0.00044055358193 0.00045552047115 0.0004693895662 0.00048223241303 0.00049409416817 0.00050488005504 0.00051472874105 0.00052356459539 0.00053136246625 
0.00053829871755 0.00054423433583 0.00054921001161 0.00055335425283 0.00055656145036 0.00055893499133 0.00056049130785 0.00056119297233 0.00056119023539 
0.00056041011165 0.00055887356208 0.00055673296568 0.00055391624003 0.00055048938212 0.00054653327776 0.0005420258307 0.00053706587513 0.00053167321016 
0.00052586841809 0.0005197635065 0.00051335661845 0.00050670279699 0.00049988810389 0.00049294347705 0.00048592785124 0.00047890727893 0.00047194174966 
0.0004650794641 0.00045840450733 0.00045198905595 0.00044585104527 0.00044012094331 0.00043485186482 0.00043007574083 0.0004259370213 0.00042244591116 
0.00041970697042 0.00041785329726 0.00041681599448 0.00042465723637 0.00044055373399 0.0004555206232 0.00046938987031 0.00048223241303 0.00049409416817 
0.00050488066326 0.00051472904515 0.00052356489949 0.00053136307446 0.00053829932576 0.00054423463994 0.00054921001161 0.00055335455693 0.00055656205857 
0.00055893559954 0.00056049161195 0.00056119266823 0.00056118993128 0.00056040980754 0.00055887325798 0.00055673326979 0.00055391624003 0.00055048938212 
0.00054653327776 0.0005420255266 0.00053706557102 0.00053167321016 0.0005258687222 0.00051976320239 0.00051335661845 0.0005067034052 0.00049988840799 
0.00049294317294 0.00048592724303 0.00047890667072 0.00047194144555 0.00046507931204 0.00045840450733 0.0004519889039 0.00044585074117 0.00044012079126 
0.00043485186482 0.00043007619698 0.00042593732541 0.00042244606321 0.00041970697042 0.00041785314521 0.00041681584242 0.00042465754048 0.00044055373399 
0.0004555206232 0.0004693895662 0.00048223210892 0.00049409386407 0.00050488035915 0.00051472904515 0.00052356459539 0.00053136246625 0.00053829871755 
0.00054423433583 0.00054921001161 0.00055335455693 0.00055656175446 0.00055893529544 0.00056049161195 0.00056119266823 0.00056118993128 0.00056040980754 
0.00055887325798 0.00055673326979 0.00055391654414 0.00055048968623 0.00054653327776 0.0005420255266 0.00053706587513 0.00053167321016 0.00052586841809 
0.00051976320239 0.00051335661845 0.0005067031011 0.00049988779978 0.00049294317294 0.00048592785124 0.00047890727893 0.00047194144555 0.00046507931204 
0.00045840481143 0.000451989208 0.00044585104527 0.00044012109537 0.00043485186482 0.00043007558877 0.0004259370213 0.00042244591116 0.00041970712248 
0.00041785329726 0.00041681599448 0.00042465723637 0.00044055373399 0.0004555209273 0.00046939017441 0.00048223241303 0.00049409386407 0.00050488005504 
0.00051472874105 0.00052356489949 0.00053136307446 0.00053829932576 0.00054423463994 0.00054921001161 0.00055335425283 0.00055656145036 0.00055893529544 
0.00056049161195 0.00056119266823 0.00056118993128 0.00056040980754 0.00055887325798 0.00055673326979 0.00055391624003 0.00055048907802 0.00054653297366 
0.0005420255266 0.00053706557102 0.00053167290606 0.00052586841809 0.00051976320239 0.00051335631434 0.0005067031011 0.00049988840799 0.00049294347705 
0.00048592754714 0.00047890667072 0.00047194144555 0.00046507931204 0.00045840420322 0.00045198859979 0.00044585074117 0.00044012079126 0.00043485186482 
0.00043007619698 0.0004259370213 0.00042244560705 0.00041970681837 0.00041785329726 0.00041681599448 0.00042465723637 0.00044055373399 0.0004555206232 
0.00046938987031 0.00048223241303 0.00049409416817 0.00050488066326 0.00051472904515 0.00052356489949 0.00053136277035 0.00053829871755 0.00054423403173 
0.00054921001161 0.00055335486104 0.00055656175446 0.00055893529544 0.00056049130785 0.00056119236412 0.00056118993128 0.00056040980754 0.00055887295387 
0.00055673296568 0.00055391624003 0.00055048938212 0.00054653327776 0.0005420255266 0.00053706587513 0.00053167321016 0.00052586841809 0.0005197635065 
0.00051335692255 0.0005067031011 0.00049988810389 0.00049294317294 0.00048592754714 0.00047890697483 0.00047194114145 0.00046507900794 0.00045840450733 
0.000451989208 0.00044585074117 0.00044012079126 0.00043485186482 0.00043007558877 0.0004259370213 0.00042244591116 0.00041970712248 0.00041785360137 
0.00041681599448 0.00042465754048 0.00044055373399 0.0004555206232 0.0004693895662 0.00048223210892 0.00049409386407 0.00050488035915 0.00051472934926 
0.00052356489949 0.00053136277035 0.00053829902166 0.00054423433583 0.00054921001161 0.00055335455693 0.00055656205857 0.00055893529544 0.00056049130785 
0.00056119266823 0.00056118993128 0.00056041011165 0.00055887356208 0.00055673326979 0.00055391654414 0.00055048938212 0.00054653327776 0.00054202613481 
0.00053706587513 0.00053167321016 0.0005258687222 0.00051976320239 0.00051335661845 0.0005067031011 0.00049988779978 0.00049294317294 0.00048592754714 
0.00047890697483 0.00047194174966 0.00046507961615 0.00045840481143 0.000451989208 0.00044585104527 0.00044012079126 0.00043485186482 0.00043007619698 
0.00042593732541 0.00042244621527 0.00041970712248 0.00041785299316 0.00041681599448 0.00042465723637 0.00044055373399 0.0004555206232 0.00046938987031 
0.00048223241303 0.00049409416817 0.00050488035915 0.00051472874105 0.00052356489949 0.00053136277035 0.00053829902166 0.00054423463994 0.00054921001161 
0.00055335425283 0.00055656145036 0.00055893529544 0.00056049161195 0.00056119266823 0.00056118993128 0.00056040980754 0.00055887325798 0.00055673326979 
0.00055391624003 0.00055048938212 0.00054653327776 0.0005420255266 0.00053706587513 0.00053167321016 0.00052586841809 0.00051976320239 0.00051335631434 
0.0005067031011 0.00049988840799 0.00049294347705 0.00048592754714 0.00047890667072 0.00047194144555 0.00046507931204 0.00045840420322 0.00045198859979 
0.00044585074117 0.00044012109537 0.00043485186482 0.00043007558877 0.0004259370213 0.00042244591116 0.00041970712248 0.00041785360137 0.00041681599448 
0.00042465723637 0.00044055373399 0.0004555206232 0.0004693895662 0.00048223210892 0.00049409386407 0.00050488035915 0.00051472904515 0.00052356459539 
0.00053136277035 0.00053829902166 0.00054423403173 0.0005492097075 0.00055335455693 0.00055656175446 0.00055893529544 0.00056049161195 0.00056119236412 
0.00056118993128 0.00056041011165 0.00055887356208 0.00055673326979 0.00055391593593 0.00055048907802 0.00054653297366 0.00054202522249 0.00053706526692 
0.00053167290606 0.00052586841809 0.00051976320239 0.00051335661845 0.0005067031011 0.00049988810389 0.00049294317294 0.00048592754714 0.00047890727893 
0.00047194144555 0.00046507900794 0.00045840450733 0.000451989208 0.00044585104527 0.00044012079126 0.00043485186482 0.00043007619698 0.00042593732541 
0.00042244591116 0.00041970681837 0.00041785299316 0.00041681569037 0.00042465754048 0.00044055373399 0.0004555209273 0.00046939017441 0.00048223271714 
0.00049409447228 0.00050488066326 0.00051472874105 0.00052356429128 0.00053136246625 0.00053829902166 0.00054423494404 0.00054921031571 0.00055335425283 
0.00055656175446 0.00055893559954 0.00056049161195 0.00056119266823 0.00056118962718 0.00056040950343 0.00055887295387 0.00055673326979 0.00055391684824 
0.00055048938212 0.00054653297366 0.0005420255266 0.00053706587513 0.00053167351427 0.0005258687222 0.00051976320239 0.00051335631434 0.00050670279699 
0.00049988810389 0.00049294347705 0.00048592754714 0.00047890667072 0.00047194144555 0.00046507961615 0.00045840481143 0.0004519889039 0.00044585074117 
0.00044012109537 0.00043485186482 0.00043007558877 0.0004259370213 0.00042244591116 0.00041970712248 0.00041785360137 0.00041681629858 0.00042465723637 
0.00044055373399 0.0004555206232 0.00046938987031 0.00048223241303 0.00049409386407 0.00050488035915 0.00051472904515 0.00052356489949 0.00053136277035 
0.00053829841345 0.00054423372762 0.0005492097075 0.00055335486104 0.00055656175446 0.00055893499133 0.00056049161195 0.00056119266823 0.00056119023539 
0.00056041011165 0.00055887295387 0.00055673266158 0.00055391624003 0.00055048999033 0.00054653358187 0.00054202613481 0.00053706617923 0.00053167290606 
0.00052586841809 0.00051976320239 0.00051335692255 0.0005067034052 0.00049988810389 0.00049294317294 0.00048592754714 0.00047890727893 0.00047194144555 
0.00046507900794 0.00045840420322 0.0004519889039 0.00044585104527 0.00044012079126 0.00043485186482 0.00043007619698 0.0004259370213 0.00042244560705 
0.00041970681837 0.00041785299316 0.00041681569037 0.00042465723637 0.00044055373399 0.0004555206232 0.00046938987031 0.00048223210892 0.00049409386407 
0.00050488066326 0.00051472904515 0.00052356489949 0.00053136337856 0.00053829962987 0.00054423433583 0.00054921031571 0.00055335486104 0.00055656175446 
0.00055893559954 0.00056049161195 0.00056119266823 0.00056118962718 0.00056040950343 0.00055887356208 0.000556733878 0.00055391624003 0.00055048877391 
0.00054653297366 0.0005420255266 0.00053706557102 0.00053167290606 0.00052586841809 0.00051976320239 0.00051335631434 0.0005067031011 0.00049988810389 
0.00049294317294 0.00048592754714 0.00047890667072 0.00047194114145 0.00046507931204 0.00045840481143 0.0004519889039 0.00044585074117 0.00044012109537 
0.00043485186482 0.00043007558877 0.0004259370213 0.00042244621527 0.00041970742658 0.00041785360137 0.00041681599448 0.00042465754048 0.00044055373399 
0.0004555209273 0.0004693895662 0.00048223210892 0.00049409386407 0.00050487944683 0.00051472843694 0.00052356489949 0.00053136277035 0.00053829902166 
0.00054423494404 0.00054921031571 0.00055335425283 0.00055656175446 0.00055893559954 0.00056049161195 0.00056119266823 0.00056119023539 0.00056041011165 
0.00055887295387 0.00055673266158 0.00055391624003 0.00055048938212 0.00054653297366 0.0005420255266 0.00053706617923 0.00053167351427 0.00052586841809 
0.0005197638106 0.00051335692255 0.0005067031011 0.00049988810389 0.00049294317294 0.00048592785124 0.00047890727893 0.00047194205376 0.00046507992025 
0.00045840450733 0.0004519889039 0.00044585104527 0.00044012079126 0.00043485186482 0.00043007589288 0.0004259370213 0.00042244591116 0.00041970681837 
0.00041785299316 0.00041681599448 0.00042465723637 0.00044055342988 0.00045552001499 0.0004693895662 0.00048223271714 0.00049409447228 0.00050488066326 
0.00051472904515 0.00052356429128 0.00053136216214 0.00053829841345 0.00054423372762 0.0005492097075 0.00055335425283 0.00055656114625 0.00055893438312 
0.00056049100374 0.00056119327644 0.00056119023539 0.00056041011165 0.0005588741703 0.00055673326979 0.00055391624003 0.00055048938212 0.00054653358187 
0.00054202613481 0.00053706557102 0.00053167290606 0.00052586841809 0.00051976320239 0.00051335631434 0.00050670249288 0.00049988810389 0.00049294378115 
0.00048592785124 0.00047890727893 0.00047194144555 0.00046507900794 0.00045840450733 0.000451989208 0.00044585104527 0.00044012109537 0.00043485186482 