# vtk DataFile Version 4.0
vtk output
ASCII
DATASET STRUCTURED_GRID
DIMENSIONS 50 1 50
POINTS 2500 float
0 0 0 0.0204082 0 0 0.0408163 0 0 
0.0612245 0 0 0.0816327 0 0 0.102041 0 0 
0.122449 0 0 0.142857 0 0 0.163265 0 0 
0.183673 0 0 0.204082 0 0 0.22449 0 0 
0.244898 0 0 0.265306 0 0 0.285714 0 0 
0.306122 0 0 0.326531 0 0 0.346939 0 0 
0.367347 0 0 0.387755 0 0 0.408163 0 0 
0.428571 0 0 0.44898 0 0 0.469388 0 0 
0.489796 0 0 0.510204 0 0 0.530612 0 0 
0.55102 0 0 0.571429 0 0 0.591837 0 0 
0.612245 0 0 0.632653 0 0 0.653061 0 0 
0.673469 0 0 0.693878 0 0 0.714286 0 0 
0.734694 0 0 0.755102 0 0 0.77551 0 0 
0.795918 0 0 0.816327 0 0 0.836735 0 0 
0.857143 0 0 0.877551 0 0 0.897959 0 0 
0.918367 0 0 0.938776 0 0 0.959184 0 0 
0.979592 0 0 1 0 0 0 0.0204082 0 
0.0204082 0.0196081 0 0.0408163 0.0188503 0 0.0612245 0.0181413 0 
0.0816327 0.0174911 0 0.102041 0.0168828 0 0.122449 0.0163287 0 
0.142857 0.0158257 0 0.163265 0.0153635 0 0.183673 0.0149598 0 
0.204082 0.0145993 0 0.22449 0.0142801 0 0.244898 0.0140176 0 
0.265306 0.0137924 0 0.285714 0.0136116 0 0.306122 0.013478 0 
0.326531 0.0133789 0 0.346939 0.0133256 0 0.367347 0.0133102 0 
0.387755 0.0133259 0 0.408163 0.0133867 0 0.428571 0.0134764 0 
0.44898 0.0135964 0 0.469388 0.0137525 0 0.489796 0.0139322 0 
0.510204 0.0141402 0 0.530612 0.0143739 0 0.55102 0.0146263 0 
0.571429 0.0149025 0 0.591837 0.015195 0 0.612245 0.0155009 0 
0.632653 0.0158228 0 0.653061 0.0161529 0 0.673469 0.0164907 0 
0.693878 0.0168336 0 0.714286 0.0171781 0 0.734694 0.0175217 0 
0.755102 0.0178607 0 0.77551 0.0181941 0 0.795918 0.0185148 0 
0.816327 0.018823 0 0.836735 0.0191162 0 0.857143 0.0193845 0 
0.877551 0.0196326 0 0.897959 0.0198526 0 0.918367 0.0200382 0 
0.938776 0.0201948 0 0.959184 0.0203065 0 0.979592 0.0203765 0 
1 0.0204082 0 0 0.0408163 0 0.0204082 0.0392161 0 
0.0408163 0.0377006 0 0.0612245 0.0362826 0 0.0816327 0.0349823 0 
0.102041 0.0337655 0 0.122449 0.0326573 0 0.142857 0.0316514 0 
0.163265 0.0307269 0 0.183673 0.0299197 0 0.204082 0.0291985 0 
0.22449 0.0285601 0 0.244898 0.0280353 0 0.265306 0.0275848 0 
0.285714 0.0272231 0 0.306122 0.026956 0 0.326531 0.0267579 0 
0.346939 0.0266512 0 0.367347 0.0266203 0 0.387755 0.0266517 0 
0.408163 0.0267734 0 0.428571 0.0269527 0 0.44898 0.0271928 0 
0.469388 0.027505 0 0.489796 0.0278643 0 0.510204 0.0282804 0 
0.530612 0.0287478 0 0.55102 0.0292525 0 0.571429 0.0298051 0 
0.591837 0.0303899 0 0.612245 0.0310017 0 0.632653 0.0316457 0 
0.653061 0.0323058 0 0.673469 0.0329814 0 0.693878 0.0336673 0 
0.714286 0.0343562 0 0.734694 0.0350433 0 0.755102 0.0357214 0 
0.77551 0.0363883 0 0.795918 0.0370297 0 0.816327 0.037646 0 
0.836735 0.0382325 0 0.857143 0.0387691 0 0.877551 0.0392652 0 
0.897959 0.0397052 0 0.918367 0.0400764 0 0.938776 0.0403897 0 
0.959184 0.040613 0 0.979592 0.040753 0 1 0.0408163 0 
0 0.0612245 0 0.0204082 0.0588242 0 0.0408163 0.056551 0 
0.0612245 0.0544239 0 0.0816327 0.0524734 0 0.102041 0.0506483 0 
0.122449 0.048986 0 0.142857 0.0474772 0 0.163265 0.0460904 0 
0.183673 0.0448795 0 0.204082 0.0437978 0 0.22449 0.0428402 0 
0.244898 0.0420529 0 0.265306 0.0413772 0 0.285714 0.0408347 0 
0.306122 0.0404341 0 0.326531 0.0401368 0 0.346939 0.0399768 0 
0.367347 0.0399305 0 0.387755 0.0399776 0 0.408163 0.04016 0 
0.428571 0.0404291 0 0.44898 0.0407892 0 0.469388 0.0412575 0 
0.489796 0.0417965 0 0.510204 0.0424206 0 0.530612 0.0431217 0 
0.55102 0.0438788 0 0.571429 0.0447076 0 0.591837 0.0455849 0 
0.612245 0.0465026 0 0.632653 0.0474685 0 0.653061 0.0484587 0 
0.673469 0.0494721 0 0.693878 0.0505009 0 0.714286 0.0515343 0 
0.734694 0.052565 0 0.755102 0.0535821 0 0.77551 0.0545824 0 
0.795918 0.0555445 0 0.816327 0.056469 0 0.836735 0.0573487 0 
0.857143 0.0581536 0 0.877551 0.0588978 0 0.897959 0.0595578 0 
0.918367 0.0601146 0 0.938776 0.0605845 0 0.959184 0.0609195 0 
0.979592 0.0611295 0 1 0.0612245 0 0 0.0816327 0 
0.0204082 0.0784323 0 0.0408163 0.0754013 0 0.0612245 0.0725653 0 
0.0816327 0.0699645 0 0.102041 0.067531 0 0.122449 0.0653147 0 
0.142857 0.0633029 0 0.163265 0.0614539 0 0.183673 0.0598394 0 
0.204082 0.0583971 0 0.22449 0.0571202 0 0.244898 0.0560706 0 
0.265306 0.0551696 0 0.285714 0.0544462 0 0.306122 0.0539121 0 
0.326531 0.0535158 0 0.346939 0.0533024 0 0.367347 0.0532406 0 
0.387755 0.0533034 0 0.408163 0.0535467 0 0.428571 0.0539055 0 
0.44898 0.0543856 0 0.469388 0.05501 0 0.489796 0.0557287 0 
0.510204 0.0565608 0 0.530612 0.0574957 0 0.55102 0.0585051 0 
0.571429 0.0596102 0 0.591837 0.0607799 0 0.612245 0.0620034 0 
0.632653 0.0632913 0 0.653061 0.0646116 0 0.673469 0.0659628 0 
0.693878 0.0673345 0 0.714286 0.0687124 0 0.734694 0.0700866 0 
0.755102 0.0714428 0 0.77551 0.0727766 0 0.795918 0.0740594 0 
0.816327 0.075292 0 0.836735 0.076465 0 0.857143 0.0775382 0 
0.877551 0.0785304 0 0.897959 0.0794103 0 0.918367 0.0801528 0 
0.938776 0.0807794 0 0.959184 0.081226 0 0.979592 0.081506 0 
1 0.0816327 0 0 0.102041 0 0.0204082 0.0980403 0 
0.0408163 0.0942516 0 0.0612245 0.0907066 0 0.0816327 0.0874557 0 
0.102041 0.0844138 0 0.122449 0.0816433 0 0.142857 0.0791286 0 
0.163265 0.0768174 0 0.183673 0.0747992 0 0.204082 0.0729963 0 
0.22449 0.0714003 0 0.244898 0.0700882 0 0.265306 0.068962 0 
0.285714 0.0680578 0 0.306122 0.0673901 0 0.326531 0.0668947 0 
0.346939 0.066628 0 0.367347 0.0665508 0 0.387755 0.0666293 0 
0.408163 0.0669334 0 0.428571 0.0673818 0 0.44898 0.067982 0 
0.469388 0.0687625 0 0.489796 0.0696609 0 0.510204 0.070701 0 
0.530612 0.0718696 0 0.55102 0.0731313 0 0.571429 0.0745127 0 
0.591837 0.0759749 0 0.612245 0.0775043 0 0.632653 0.0791141 0 
0.653061 0.0807645 0 0.673469 0.0824535 0 0.693878 0.0841682 0 
0.714286 0.0858905 0 0.734694 0.0876083 0 0.755102 0.0893036 0 
0.77551 0.0909707 0 0.795918 0.0925742 0 0.816327 0.094115 0 
0.836735 0.0955812 0 0.857143 0.0969227 0 0.877551 0.0981631 0 
0.897959 0.0992629 0 0.918367 0.100191 0 0.938776 0.100974 0 
0.959184 0.101533 0 0.979592 0.101883 0 1 0.102041 0 
0 0.122449 0 0.0204082 0.117648 0 0.0408163 0.113102 0 
0.0612245 0.108848 0 0.0816327 0.104947 0 0.102041 0.101297 0 
0.122449 0.097972 0 0.142857 0.0949543 0 0.163265 0.0921808 0 
0.183673 0.0897591 0 0.204082 0.0875956 0 0.22449 0.0856804 0 
0.244898 0.0841058 0 0.265306 0.0827544 0 0.285714 0.0816693 0 
0.306122 0.0808681 0 0.326531 0.0802737 0 0.346939 0.0799536 0 
0.367347 0.0798609 0 0.387755 0.0799552 0 0.408163 0.0803201 0 
0.428571 0.0808582 0 0.44898 0.0815785 0 0.469388 0.082515 0 
0.489796 0.083593 0 0.510204 0.0848412 0 0.530612 0.0862435 0 
0.55102 0.0877576 0 0.571429 0.0894153 0 0.591837 0.0911698 0 
0.612245 0.0930051 0 0.632653 0.094937 0 0.653061 0.0969174 0 
0.673469 0.0989442 0 0.693878 0.101002 0 0.714286 0.103069 0 
0.734694 0.10513 0 0.755102 0.107164 0 0.77551 0.109165 0 
0.795918 0.111089 0 0.816327 0.112938 0 0.836735 0.114697 0 
0.857143 0.116307 0 0.877551 0.117796 0 0.897959 0.119116 0 
0.918367 0.120229 0 0.938776 0.121169 0 0.959184 0.121839 0 
0.979592 0.122259 0 1 0.122449 0 0 0.142857 0 
0.0204082 0.137256 0 0.0408163 0.131952 0 0.0612245 0.126989 0 
0.0816327 0.122438 0 0.102041 0.118179 0 0.122449 0.114301 0 
0.142857 0.11078 0 0.163265 0.107544 0 0.183673 0.104719 0 
0.204082 0.102195 0 0.22449 0.0999604 0 0.244898 0.0981235 0 
0.265306 0.0965469 0 0.285714 0.0952809 0 0.306122 0.0943462 0 
0.326531 0.0936526 0 0.346939 0.0932792 0 0.367347 0.0931711 0 
0.387755 0.093281 0 0.408163 0.0937068 0 0.428571 0.0943346 0 
0.44898 0.0951749 0 0.469388 0.0962675 0 0.489796 0.0975252 0 
0.510204 0.0989814 0 0.530612 0.100617 0 0.55102 0.102384 0 
0.571429 0.104318 0 0.591837 0.106365 0 0.612245 0.108506 0 
0.632653 0.11076 0 0.653061 0.11307 0 0.673469 0.115435 0 
0.693878 0.117835 0 0.714286 0.120247 0 0.734694 0.122652 0 
0.755102 0.125025 0 0.77551 0.127359 0 0.795918 0.129604 0 
0.816327 0.131761 0 0.836735 0.133814 0 0.857143 0.135692 0 
0.877551 0.137428 0 0.897959 0.138968 0 0.918367 0.140267 0 
0.938776 0.141364 0 0.959184 0.142146 0 0.979592 0.142636 0 
1 0.142857 0 0 0.163265 0 0.0204082 0.156865 0 
0.0408163 0.150803 0 0.0612245 0.145131 0 0.0816327 0.139929 0 
0.102041 0.135062 0 0.122449 0.130629 0 0.142857 0.126606 0 
0.163265 0.122908 0 0.183673 0.119679 0 0.204082 0.116794 0 
0.22449 0.11424 0 0.244898 0.112141 0 0.265306 0.110339 0 
0.285714 0.108892 0 0.306122 0.107824 0 0.326531 0.107032 0 
0.346939 0.106605 0 0.367347 0.106481 0 0.387755 0.106607 0 
0.408163 0.107093 0 0.428571 0.107811 0 0.44898 0.108771 0 
0.469388 0.11002 0 0.489796 0.111457 0 0.510204 0.113122 0 
0.530612 0.114991 0 0.55102 0.11701 0 0.571429 0.11922 0 
0.591837 0.12156 0 0.612245 0.124007 0 0.632653 0.126583 0 
0.653061 0.129223 0 0.673469 0.131926 0 0.693878 0.134669 0 
0.714286 0.137425 0 0.734694 0.140173 0 0.755102 0.142886 0 
0.77551 0.145553 0 0.795918 0.148119 0 0.816327 0.150584 0 
0.836735 0.15293 0 0.857143 0.155076 0 0.877551 0.157061 0 
0.897959 0.158821 0 0.918367 0.160306 0 0.938776 0.161559 0 
0.959184 0.162452 0 0.979592 0.163012 0 1 0.163265 0 
0 0.183673 0 0.0204082 0.176473 0 0.0408163 0.169653 0 
0.0612245 0.163272 0 0.0816327 0.15742 0 0.102041 0.151945 0 
0.122449 0.146958 0 0.142857 0.142431 0 0.163265 0.138271 0 
0.183673 0.134639 0 0.204082 0.131393 0 0.22449 0.128521 0 
0.244898 0.126159 0 0.265306 0.124132 0 0.285714 0.122504 0 
0.306122 0.121302 0 0.326531 0.12041 0 0.346939 0.11993 0 
0.367347 0.119791 0 0.387755 0.119933 0 0.408163 0.12048 0 
0.428571 0.121287 0 0.44898 0.122368 0 0.469388 0.123772 0 
0.489796 0.12539 0 0.510204 0.127262 0 0.530612 0.129365 0 
0.55102 0.131636 0 0.571429 0.134123 0 0.591837 0.136755 0 
0.612245 0.139508 0 0.632653 0.142405 0 0.653061 0.145376 0 
0.673469 0.148416 0 0.693878 0.151503 0 0.714286 0.154603 0 
0.734694 0.157695 0 0.755102 0.160746 0 0.77551 0.163747 0 
0.795918 0.166634 0 0.816327 0.169407 0 0.836735 0.172046 0 
0.857143 0.174461 0 0.877551 0.176694 0 0.897959 0.178673 0 
0.918367 0.180344 0 0.938776 0.181754 0 0.959184 0.182759 0 
[...]
CELL_DATA 2401
FIELD FieldData 1
Weights 1 2401 double
0.0004083289092 0.00039243252562 0.00037746565541 0.00036359637029 0.00035075413167 0.00033889212945 0.00032810607151 0.00031825689134 0.00030942170223 
0.00030162367932 0.00029468686732 0.00028875208533 0.00028377584886 0.00027963256747 0.00027642413451 0.00027405054602 0.00027249555997 0.00027179321124 
0.00027179591018 0.00027257719332 0.00027411256447 0.0002762526572 0.00027907075133 0.00028249649735 0.00028645265873 0.00029096021983 0.00029592009938 
0.00030131515917 0.00030711735684 0.00031322259155 0.00031962929904 0.00032628275937 0.00033309771857 0.00034004500633 0.00034705827532 0.00035407890465 
0.00036104439591 0.00036790654842 0.00037458133413 0.00038099933239 0.00038713498626 0.00039286495517 0.00039813399565 0.00040290996759 0.00040704874413 
0.00041054236314 0.00041327883303 0.0004151325632 0.000416169904 0.0004083289092 0.00039243252562 0.00037746565541 0.00036359637029 0.00035075413167 
0.00033889212945 0.00032810607151 0.00031825689134 0.00030942170223 0.00030162367932 0.00029468686732 0.00028875208533 0.00028377584886 0.00027963256747 
0.00027642413451 0.00027405054602 0.00027249555997 0.00027179321124 0.00027179591018 0.00027257719332 0.00027411256447 0.0002762526572 0.00027907075133 
0.00028249649735 0.00028645265873 0.00029096021983 0.00029592009938 0.00030131515917 0.00030711735684 0.00031322259155 0.00031962929904 0.00032628275937 
0.00033309771857 0.00034004500633 0.00034705827532 0.00035407890465 0.00036104439591 0.00036790654842 0.00037458133413 0.00038099933239 0.00038713498626 
0.00039286495517 0.00039813399565 0.00040290996759 0.00040704874413 0.00041054236314 0.00041327883303 0.0004151325632 0.000416169904 0.0004083289092 
0.00039243252562 0.00037746563641 0.00036359631327 0.00035075415068 0.00033889212945 0.00032810605251 0.00031825691035 0.00030942170223 0.00030162367932 
0.00029468687682 0.00028875209483 0.00028377582986 0.00027963255797 0.00027642414402 0.00027405054602 0.00027249555997 0.00027179321124 0.00027179591018 
0.00027257721233 0.00027411258348 0.0002762526667 0.00027907076083 0.00028249649735 0.00028645267774 0.00029096023884 0.00029592008037 0.00030131514017 
0.00030711732833 0.00031322254404 0.00031962926103 0.00032628277838 0.00033309773757 0.00034004498732 0.00034705825631 0.00035407886663 0.00036104439591 
0.00036790656743 0.00037458129612 0.00038099925637 0.00038713494824 0.00039286493616 0.00039813401466 0.00040291002461 0.00040704878214 0.00041054240116 
0.00041327883303 0.0004151325442 0.00041616992301 0.0004083289092 0.00039243252562 0.00037746567442 0.00036359642731 0.00035075411267 0.00033889212945 
0.00032810609052 0.00031825687234 0.00030942170223 0.00030162367932 0.00029468685782 0.00028875207583 0.00028377586787 0.00027963257697 0.00027642412501 
0.00027405054602 0.00027249555997 0.00027179321124 0.00027179591018 0.00027257717432 0.00027411254547 0.0002762526477 0.00027907074182 0.00028249649735 
0.00028645263972 0.00029096020082 0.00029592011838 0.00030131517818 0.00030711738535 0.00031322263907 0.00031962933705 0.00032628274037 0.00033309769956 
0.00034004502534 0.00034705829432 0.00035407894266 0.00036104439591 0.00036790652942 0.00037458137215 0.00038099940842 0.00038713502427 0.00039286497417 
0.00039813397664 0.00040290991057 0.00040704870612 0.00041054232513 0.00041327883303 0.00041513258221 0.000416169885 0.0004083289092 0.00039243248761 
0.00037746567442 0.00036359635129 0.00035075418869 0.00033889212945 0.0003281060145 0.00031825687234 0.0003094216262 0.00030162367932 0.00029468693384 
0.00028875215185 0.00028377582986 0.00027963253896 0.00027642420104 0.00027405054602 0.00027249552195 0.00027179317323 0.00027179591018 0.00027257725034 
0.00027411258348 0.00027625268571 0.00027907077984 0.00028249645934 0.00028645263972 0.00029096023884 0.00029592004236 0.00030131506414 0.00030711730933 
0.00031322260106 0.00031962929904 0.00032628281639 0.00033309773757 0.00034004494931 0.00034705829432 0.00035407894266 0.00036104439591 0.00036790652942 
0.00037458125811 0.00038099921835 0.00038713494824 0.00039286489815 0.00039813397664 0.00040291002461 0.00040704874413 0.00041054236314 0.00041327879501 
0.00041513246817 0.00041616992301 0.0004083289092 0.00039243256363 0.00037746559839 0.00036359627526 0.00035075411267 0.00033889212945 0.00032810609052 
0.00031825694836 0.00030942177826 0.00030162367932 0.0002946868198 0.00028875203781 0.00028377582986 0.00027963257697 0.000276424087 0.00027405054602 
0.00027249559798 0.00027179324926 0.00027179591018 0.00027257717432 0.00027411258348 0.0002762526477 0.00027907074182 0.00028249653537 0.00028645271575 
0.00029096023884 0.00029592011838 0.00030131521619 0.00030711734734 0.00031322248702 0.00031962922301 0.00032628274037 0.00033309773757 0.00034004502534 
0.0003470582183 0.00035407879061 0.00036104439591 0.00036790660544 0.00037458133413 0.00038099929438 0.00038713494824 0.00039286497417 0.00039813405267 
0.00040291002461 0.00040704882016 0.00041054243917 0.00041327887104 0.00041513262022 0.00041616992301 0.0004083289092 0.00039243248761 0.00037746575045 
0.00036359642731 0.00035075411267 0.00033889212945 0.00032810609052 0.00031825687234 0.0003094216262 0.00030162367932 0.00029468689583 0.00028875211384 
0.00028377590588 0.00027963257697 0.00027642416302 0.00027405054602 0.00027249552195 0.00027179317323 0.00027179591018 0.00027257717432 0.00027411250746 
0.0002762526477 0.00027907074182 0.00028249645934 0.0002864525637 0.00029096016281 0.00029592011838 0.00030131514017 0.00030711734734 0.00031322263907 
0.00031962929904 0.00032628274037 0.00033309773757 0.00034004502534 0.00034705829432 0.00035407894266 0.00036104439591 0.00036790660544 0.00037458148619 
0.00038099937041 0.00038713487222 0.00039286482212 0.00039813390062 0.00040290994858 0.0004070486681 0.00041054221109 0.00041327871899 0.0004151325442 
0.00041616999904 0.0004083289092 0.00039243256363 0.00037746559839 0.00036359642731 0.00035075411267 0.00033889212945 0.00032810609052 0.00031825687234 
0.00030942177826 0.00030162367932 0.0002946868198 0.00028875203781 0.00028377582986 0.00027963257697 0.000276424087 0.00027405054602 0.00027249559798 
0.00027179324926 0.00027179591018 0.00027257717432 0.00027411258348 0.0002762526477 0.00027907074182 0.00028249653537 0.00028645271575 0.00029096023884 
0.00029592011838 0.00030131521619 0.00030711742337 0.00031322263907 0.00031962937507 0.00032628274037 0.00033309766155 0.00034004502534 0.00034705829432 
0.00035407894266 0.00036104439591 0.00036790645339 0.00037458125811 0.00038099944643 0.00038713517632 0.00039286512623 0.00039813405267 0.00040290987256 
0.00040704874413 0.00041054243917 0.00041327894706 0.00041513262022 0.00041616977096 0.0004083289092 0.00039243256363 0.00037746575045 0.00036359635129 
0.00035075411267 0.00033889205342 0.0003281060145 0.00031825687234 0.0003094216262 0.00030162360329 0.0002946868198 0.00028875211384 0.00028377582986 
0.00027963250095 0.00027642416302 0.00027405054602 0.00027249552195 0.00027179317323 0.00027179591018 0.00027257725034 0.00027411258348 0.0002762526477 
0.00027907074182 0.00028249645934 0.00028645263972 0.00029096023884 0.00029592004236 0.00030131514017 0.00030711742337 0.00031322263907 0.00031962929904 
0.00032628281639 0.0003330978136 0.00034004502534 0.0003470582183 0.00035407879061 0.00036104431988 0.00036790660544 0.00037458125811 0.00038099914233 
0.00038713487222 0.00039286482212 0.00039813405267 0.00040291017666 0.00040704889618 0.00041054243917 0.00041327879501 0.00041513246817 0.00041616992301 
0.0004083289092 0.00039243241158 0.00037746559839 0.00036359635129 0.00035075426472 0.00033889220547 0.0003281060145 0.00031825687234 0.0003094216262 
0.00030162375534 0.00029468704788 0.00028875218987 0.00028377582986 0.00027963257697 0.00027642423905 0.00027405054602 0.00027249552195 0.00027179317323 
0.00027179591018 0.00027257725034 0.00027411258348 0.00027625272372 0.00027907081785 0.00028249645934 0.00028645263972 0.00029096023884 0.00029592004236 
0.00030131498811 0.00030711719529 0.00031322256304 0.00031962929904 0.00032628281639 0.00033309766155 0.00034004487328 0.00034705837035 0.00035407909471 
0.00036104447193 0.00036790645339 0.00037458125811 0.00038099929438 0.00038713502427 0.00039286497417 0.00039813390062 0.00040290987256 0.00040704859208 
0.00041054228712 0.00041327879501 0.00041513246817 0.00041616992301 0.00040832875714 0.00039243241158 0.00037746544634 0.00036359619923 0.00035075411267 
0.00033889220547 0.00032810616655 0.00031825702439 0.00030942193031 0.00030162375534 0.00029468674378 0.00028875188576 0.00028377575383 0.00027963257697 
0.00027642401097 0.00027405047 0.00027249552195 0.00027179309721 0.00027179583415 0.00027257717432 0.00027411250746 0.00027625249565 0.00027907074182 
0.00028249668742 0.00028645279178 0.00029096023884 0.00029592019441 0.00030131529222 0.00030711734734 0.00031322256304 0.00031962929904 0.00032628266434 
0.00033309766155 0.00034004502534 0.0003470582183 0.00035407879061 0.00036104431988 0.00036790660544 0.00037458141016 0.00038099929438 0.00038713487222 
0.00039286497417 0.00039813405267 0.00040290987256 0.00040704874413 0.00041054243917 0.00041327894706 0.00041513277228 0.00041616992301 0.00040832906125 
0.00039243271569 0.00037746575045 0.00036359635129 0.00035075411267 0.00033889205342 0.0003281060145 0.00031825687234 0.0003094216262 0.00030162360329 
0.00029468689583 0.00028875218987 0.00028377590588 0.00027963257697 0.00027642416302 0.00027405062205 0.00027249567401 0.00027179340131 0.0002717959862 
0.00027257717432 0.00027411265951 0.00027625279975 0.00027907074182 0.00028249638331 0.00028645263972 0.00029096023884 0.00029592004236 0.00030131514017 
0.00030711734734 0.00031322241099 0.00031962914699 0.00032628281639 0.0003330978136 0.00034004502534 0.0003470582183 0.00035407879061 0.00036104447193 
0.00036790660544 0.00037458125811 0.00038099929438 0.00038713502427 0.00039286497417 0.00039813405267 0.00040291017666 0.00040704889618 0.00041054243917 
0.00041327879501 0.00041513246817 0.00041616992301 0.0004083289092 0.00039243256363 0.00037746559839 0.00036359635129 0.00035075411267 0.00033889220547 
0.00032810616655 0.00031825687234 0.0003094216262 0.00030162360329 0.00029468674378 0.00028875203781 0.00028377590588 0.00027963257697 0.00027642416302 
0.00027405047 0.0002724953699 0.00027179309721 0.00027179583415 0.00027257702226 0.0002741123554 0.00027625249565 0.00027907074182 0.00028249653537 
0.00028645248767 0.00029096008678 0.00029592019441 0.00030131529222 0.00030711749939 0.0003132227151 0.00031962929904 0.00032628266434 0.00033309766155 
0.00034004502534 0.00034705837035 0.00035407909471 0.00036104447193 0.00036790660544 0.00037458141016 0.00038099929438 0.00038713487222 0.00039286482212 
0.00039813390062 0.00040291002461 0.00040704889618 0.00041054243917 0.00041327879501 0.00041513262022 0.00041616992301 0.0004083289092 0.00039243241158 
0.0003774659025 0.00036359650334 0.00035075411267 0.00033889205342 0.0003281060145 0.00031825687234 0.0003094216262 0.00030162375534 0.00029468704788 
0.00028875218987 0.00028377590588 0.00027963257697 0.00027642416302 0.00027405062205 0.00027249567401 0.00027179324926 0.0002717959862 0.00027257732637 
0.00027411265951 0.00027625279975 0.00027907074182 0.00028249638331 0.00028645263972 0.00029096023884 0.00029592004236 0.00030131498811 0.00030711719529 
0.00031322256304 0.00031962929904 0.00032628281639 0.0003330978136 0.00034004502534 0.0003470582183 0.00035407879061 0.00036104431988 0.00036790660544 
0.00037458156221 0.00038099944643 0.00038713487222 0.00039286482212 0.00039813390062 0.00040290987256 0.00040704844002 0.00041054198301 0.00041327864296 
0.00041513246817 0.00041617007506 0.0004083289092 0.00039243271569 0.00037746559839 0.00036359635129 0.00035075426472 0.00033889220547 0.00032810616655 
0.00031825702439 0.00030942193031 0.00030162375534 0.00029468674378 0.00028875203781 0.00028377590588 0.00027963257697 0.00027642401097 0.00027405047 
0.00027249552195 0.00027179309721 0.00027179583415 0.00027257717432 0.00027411250746 0.00027625249565 0.00027907074182 0.00028249653537 0.00028645263972 
0.00029096023884 0.00029592004236 0.00030131514017 0.00030711734734 0.00031322256304 0.00031962929904 0.00032628266434 0.00033309766155 0.00034004502534 
0.00034705837035 0.00035407909471 0.00036104447193 0.00036790645339 0.00037458125811 0.00038099929438 0.00038713502427 0.00039286527828 0.00039813420472 
0.00040290987256 0.00040704874413 0.00041054259122 0.00041327925117 0.00041513277228 0.00041616977096 0.0004083289092 0.00039243241158 0.00037746559839 
0.00036359650334 0.00035075396061 0.00033889205342 0.0003281060145 0.00031825672028 0.0003094216262 0.00030162360329 0.00029468689583 0.00028875203781 
0.00028377575383 0.00027963257697 0.00027642416302 0.00027405062205 0.00027249567401 0.00027179340131 0.0002717959862 0.00027257717432 0.00027411265951 
0.00027625279975 0.00027907074182 0.00028249653537 0.00028645279178 0.00029096023884 0.00029592019441 0.00030131529222 0.00030711749939 0.0003132227151 
0.00031962945109 0.00032628281639 0.00033309766155 0.00034004502534 0.0003470582183 0.00035407879061 0.00036104431988 0.00036790645339 0.00037458125811 
0.00038099959849 0.00038713532837 0.00039286497417 0.00039813390062 0.00040290987256 0.00040704874413 0.00041054228712 0.00041327864296 0.00041513246817 
0.00041616977096 0.0004083289092 0.00039243241158 0.00037746559839 0.00036359619923 0.00035075426472 0.00033889220547 0.0003281060145 0.00031825702439 
0.00030942177826 0.00030162360329 0.00029468674378 0.00028875203781 0.00028377575383 0.00027963242492 0.00027642416302 0.00027405047 0.0002724953699 
0.00027179309721 0.00027179583415 0.00027257717432 0.00027411250746 0.0002762526477 0.00027907089388 0.00028249653537 0.00028645263972 0.00029096023884 
0.00029592004236 0.00030131498811 0.00030711719529 0.00031322241099 0.00031962914699 0.00032628296844 0.00033309796565 0.00034004502534 0.0003470582183 
0.00035407879061 0.00036104431988 0.00036790645339 0.00037458125811 0.00038099929438 0.00038713502427 0.00039286497417 0.00039813420472 0.00040291017666 
0.00040704874413 0.00041054259122 0.00041327894706 0.00041513246817 0.00041617007506 0.0004083289092 0.00039243271569 0.0003774659025 0.00036359650334 
0.00035075396061 0.00033889190137 0.0003281060145 0.00031825672028 0.00030942147415 0.00030162360329 0.00029468689583 0.00028875218987 0.00028377590588 
0.00027963257697 0.00027642416302 0.00027405062205 0.00027249567401 0.00027179324926 0.0002717959862 0.00027257732637 0.00027411265951 0.0002762526477 
0.00027907058977 0.00028249638331 0.00028645263972 0.00029096023884 0.00029592004236 0.00030131529222 0.00030711765145 0.00031322286715 0.00031962945109 
0.00032628266434 0.00033309766155 0.00034004502534 0.0003470582183 0.00035407879061 0.00036104431988 0.0003679067575 0.00037458125811 0.00038099899027 
0.00038713472016 0.00039286467007 0.00039813390062 0.00040291017666 0.00040704904823 0.00041054228712 0.00041327864296 0.00041513246817 0.00041616977096 
0.0004083289092 0.00039243241158 0.00037746529429 0.00036359619923 0.00035075426472 0.00033889220547 0.0003281060145 0.00031825702439 0.00030942177826 
0.0003016239074 0.00029468704788 0.00028875203781 0.00028377590588 0.00027963272903 0.00027642416302 0.00027405031794 0.0002724953699 0.00027179324926 
0.0002717959862 0.00027257702226 0.0002741123554 0.0002762526477 0.00027907089388 0.00028249653537 0.00028645248767 0.00029096023884 0.00029592019441 
0.00030131498811 0.00030711704323 0.00031322225894 0.00031962914699 0.00032628266434 0.00033309735744 0.00034004472123 0.0003470582183 0.00035407909471 
0.00036104462399 0.00036790645339 0.00037458125811 0.00038099929438 0.00038713502427 0.00039286497417 0.00039813390062 0.00040290987256 0.00040704874413 
0.00041054228712 0.00041327864296 0.00041513246817 0.00041616977096 0.0004083289092 0.00039243241158 0.0003774659025 0.00036359650334 0.00035075426472 
0.00033889220547 0.0003281060145 0.00031825672028 0.00030942147415 0.00030162360329 0.00029468704788 0.00028875234192 0.00028377575383 0.00027963242492 
0.00027642431508 0.0002740507741 0.00027249567401 0.00027179309721 0.00027179583415 0.00027257747842 0.00027411281156 0.00027625279975 0.00027907074182 
0.00028249638331 0.00028645279178 0.00029096023884 0.00029591989031 0.00030131498811 0.00030711734734 0.00031322286715 0.00031962945109 0.00032628296844 
0.00033309796565 0.00034004502534 0.0003470585224 0.00035407909471 0.00036104431988 0.00036790645339 0.00037458125811 0.00038099929438 0.00038713502427 
0.00039286497417 0.00039813390062 0.00040290987256 0.00040704844002 0.00041054228712 0.00041327894706 0.00041513246817 0.00041617007506 0.0004083289092 
0.00039243271569 0.00037746559839 0.00036359619923 0.00035075396061 0.00033889220547 0.0003281063186 0.00031825702439 0.00030942208236 0.0003016239074 
0.00029468674378 0.00028875203781 0.00028377605793 0.00027963272903 0.00027642401097 0.00027405047 0.00027249567401 0.00027179340131 0.00027179583415 
0.00027257687021 0.00027411250746 0.00027625249565 0.00027907043772 0.00028249638331 0.00028645248767 0.00029096023884 0.00029592049852 0.00030131559632 
0.00030711734734 0.00031322225894 0.00031962914699 0.00032628266434 0.00033309766155 0.00034004502534 0.0003470582183 0.00035407879061 0.00036104431988 
0.00036790645339 0.00037458125811 0.00038099929438 0.00038713502427 0.00039286527828 0.00039813420472 0.00040290987256 0.00040704874413 0.00041054228712 
0.00041327894706 0.00041513307638 0.00041617007506 0.00040832860509 0.00039243210748 0.00037746529429 0.00036359619923 0.00035075426472 0.00033889220547 
0.0003281060145 0.00031825702439 0.00030942177826 0.00030162360329 0.00029468674378 0.00028875173371 0.00028377544972 0.00027963242492 0.00027642401097 
0.00027405047 0.0002724953699 0.0002717927931 0.00027179583415 0.00027257747842 0.00027411250746 0.00027625249565 0.00027907104593 0.00028249699152 
0.00028645309588 0.00029096023884 0.00029591989031 0.00030131498811 0.00030711734734 0.00031322286715 0.00031962945109 0.00032628266434 0.00033309766155 
0.00034004502534 0.0003470582183 0.00035407879061 0.00036104431988 0.0003679067575 0.00037458156221 0.00038099929438 0.00038713472016 0.00039286467007 
0.00039813390062 0.00040290987256 0.00040704874413 0.00041054259122 0.00041327894706 0.00041513246817 0.00041616977096 0.0004083292133 0.00039243271569 
0.0003774659025 0.00036359650334 0.00035075396061 0.00033889190137 0.0003281060145 0.00031825672028 0.00030942147415 0.00030162360329 0.00029468674378 
0.00028875203781 0.00028377605793 0.00027963272903 0.00027642431508 0.0002740507741 0.00027249567401 0.00027179340131 0.00027179583415 0.00027257687021 
0.00027411250746 0.00027625279975 0.00027907074182 0.00028249638331 0.00028645248767 0.00029096023884 0.00029592019441 0.00030131529222 0.00030711765145 
0.00031322256304 0.00031962914699 0.00032628266434 0.00033309766155 0.00034004502534 0.0003470582183 0.00035407879061 0.00036104462399 0.0003679067575 
0.00037458125811 0.00038099929438 0.00038713502427 0.00039286497417 0.00039813390062 0.00040291017666 0.00040704904823 0.00041054228712 0.00041327864296 
0.00041513246817 0.00041617007506 0.0004083289092 0.00039243271569 0.00037746559839 0.00036359619923 0.00035075426472 0.00033889220547 0.0003281060145 
0.00031825702439 0.00030942177826 0.00030162360329 0.00029468704788 0.00028875234192 0.00028377575383 0.00027963242492 0.00027642401097 0.00027405047 
0.00027249567401 0.00027179340131 0.00027179613826 0.00027257747842 0.00027411281156 0.00027625279975 0.00027907074182 0.00028249638331 0.00028645279178 
0.00029096023884 0.00029591989031 0.00030131498811 0.00030711704323 0.00031322225894 0.00031962914699 0.00032628296844 0.00033309796565 0.00034004502534 
0.0003470582183 0.00035407879061 0.00036104431988 0.00036790645339 0.00037458125811 0.00038099929438 0.00038713502427 0.00039286497417 0.00039813420472 