# vtk DataFile Version 3.0
vtk output
ASCII
DATASET STRUCTURED_GRID
DIMENSIONS 50 1 50
POINTS 2500 float
0 0 0 0.0204082 0 0 0.0408163 0 0 
0.0612245 0 0 0.0816327 0 0 0.102041 0 0 
0.122449 0 0 0.142857 0 0 0.163265 0 0 
0.183673 0 0 0.204082 0 0 0.22449 0 0 
0.244898 0 0 0.265306 0 0 0.285714 0 0 
0.306122 0 0 0.326531 0 0 0.346939 0 0 
0.367347 0 0 0.387755 0 0 0.408163 0 0 
0.428571 0 0 0.44898 0 0 0.469388 0 0 
0.489796 0 0 0.510204 0 0 0.530612 0 0 
0.55102 0 0 0.571429 0 0 0.591837 0 0 
0.612245 0 0 0.632653 0 0 0.653061 0 0 
0.673469 0 0 0.693878 0 0 0.714286 0 0 
0.734694 0 0 0.755102 0 0 0.77551 0 0 
0.795918 0 0 0.816327 0 0 0.836735 0 0 
0.857143 0 0 0.877551 0 0 0.897959 0 0 
0.918367 0 0 0.938776 0 0 0.959184 0 0 
0.979592 0 0 1 0 0 0 0.0204082 0 
0.0204082 0.0204396 0 0.0408163 0.0204886 0 0.0612246 0.0205772 0 
0.0816328 0.0206898 0 0.102041 0.020822 0 0.12245 0.0209781 0 
0.142859 0.0211417 0 0.163268 0.0213231 0 0.183678 0.0215077 0 
0.204088 0.0216969 0 0.224499 0.021887 0 0.244911 0.0220748 0 
0.265325 0.0222565 0 0.285739 0.0224345 0 0.306155 0.0225961 0 
0.326573 0.0227513 0 0.346993 0.0228885 0 0.367415 0.0230117 0 
0.387839 0.0231193 0 0.408266 0.023203 0 0.428695 0.0232769 0 
0.44913 0.0233158 0 0.469567 0.0233437 0 0.490009 0.023343 0 
0.510454 0.0233222 0 0.530904 0.0232809 0 0.551361 0.0232102 0 
0.57182 0.0231281 0 0.59229 0.0230087 0 0.612762 0.0228783 0 
0.633244 0.0227211 0 0.653732 0.022546 0 0.674227 0.0223541 0 
0.694732 0.0221396 0 0.715242 0.0219169 0 0.735767 0.0216704 0 
0.756298 0.0214178 0 0.776842 0.0211524 0 0.797396 0.0208798 0 
0.81796 0.0206027 0 0.83854 0.0203219 0 0.859126 0.020041 0 
0.879734 0.0197657 0 0.90035 0.019494 0 0.920985 0.0192358 0 
0.941633 0.0189896 0 0.962296 0.0187596 0 0.98298 0.0185571 0 
1.00367 0.0183673 0 0 0.0408163 0 0.0204082 0.0408792 0 
0.0408164 0.0409773 0 0.0612246 0.0411543 0 0.081633 0.0413795 0 
0.102042 0.0416441 0 0.122451 0.0419562 0 0.14286 0.0422834 0 
0.163271 0.0426462 0 0.183682 0.0430155 0 0.204095 0.0433939 0 
0.224509 0.043774 0 0.244925 0.0441496 0 0.265343 0.0445129 0 
0.285763 0.0448691 0 0.306188 0.0451921 0 0.326615 0.0455027 0 
0.347046 0.045777 0 0.367482 0.0460233 0 0.387922 0.0462386 0 
0.408369 0.0464061 0 0.428819 0.0465537 0 0.449281 0.0466315 0 
0.469746 0.0466874 0 0.490221 0.0466861 0 0.510705 0.0466443 0 
0.531196 0.0465617 0 0.551701 0.0464204 0 0.572212 0.0462562 0 
0.592742 0.0460173 0 0.613279 0.0457566 0 0.633834 0.0454422 0 
0.654402 0.045092 0 0.674984 0.0447082 0 0.695587 0.0442792 0 
0.716198 0.0438338 0 0.736841 0.0433407 0 0.757494 0.0428356 0 
0.778174 0.0423048 0 0.798873 0.0417597 0 0.819593 0.0412054 0 
0.840345 0.0406438 0 0.861109 0.0400819 0 0.881918 0.0395314 0 
0.902741 0.0389881 0 0.923602 0.0384716 0 0.944491 0.0379793 0 
0.965408 0.0375192 0 0.986369 0.0371142 0 1.00735 0.0367347 0 
0 0.0612245 0 0.0204082 0.0613189 0 0.0408164 0.0614659 0 
0.0612247 0.0617315 0 0.0816332 0.0620693 0 0.102042 0.0624661 0 
0.122452 0.0629343 0 0.142862 0.0634251 0 0.163274 0.0639693 0 
0.183686 0.0645232 0 0.204101 0.0650908 0 0.224519 0.0656609 0 
0.244938 0.0662244 0 0.265362 0.0667694 0 0.285788 0.0673036 0 
0.306221 0.0677882 0 0.326657 0.068254 0 0.3471 0.0686654 0 
0.36755 0.069035 0 0.388006 0.0693579 0 0.408472 0.0696091 0 
0.428943 0.0698306 0 0.449431 0.0699473 0 0.469925 0.0700311 0 
0.490434 0.0700291 0 0.510955 0.0699665 0 0.531488 0.0698426 0 
0.552042 0.0696306 0 0.572604 0.0693844 0 0.593195 0.069026 0 
0.613797 0.0686349 0 0.634425 0.0681634 0 0.655072 0.067638 0 
0.675741 0.0670623 0 0.696441 0.0664187 0 0.717154 0.0657507 0 
0.737915 0.0650111 0 0.75869 0.0642534 0 0.779506 0.0634573 0 
0.800351 0.0626395 0 0.821227 0.0618081 0 0.842149 0.0609657 0 
0.863091 0.0601229 0 0.884101 0.0592971 0 0.905132 0.0584821 0 
0.926219 0.0577074 0 0.947348 0.0569689 0 0.968521 0.0562788 0 
0.989757 0.0556714 0 1.01102 0.055102 0 0 0.0816327 0 
0.0204082 0.0817585 0 0.0408164 0.0819546 0 0.0612248 0.0823086 0 
0.0816334 0.0827591 0 0.102043 0.0832881 0 0.122453 0.0839124 0 
0.142863 0.0845668 0 0.163276 0.0852923 0 0.183691 0.086031 0 
0.204108 0.0867878 0 0.224528 0.0875479 0 0.244952 0.0882991 0 
0.265381 0.0890258 0 0.285812 0.0897381 0 0.306254 0.0903842 0 
0.326699 0.0910053 0 0.347154 0.0915539 0 0.367617 0.0920467 0 
0.388089 0.0924771 0 0.408575 0.0928121 0 0.429067 0.0931075 0 
0.449582 0.0932631 0 0.470104 0.0933748 0 0.490647 0.0933722 0 
0.511205 0.0932887 0 0.531781 0.0931235 0 0.552382 0.0928409 0 
0.572995 0.0925125 0 0.593648 0.0920346 0 0.614314 0.0915132 0 
0.635015 0.0908845 0 0.655743 0.0901839 0 0.676498 0.0894164 0 
0.697295 0.0885583 0 0.718111 0.0876676 0 0.738988 0.0866814 0 
0.759886 0.0856712 0 0.780837 0.0846097 0 0.801828 0.0835194 0 
0.82286 0.0824108 0 0.843954 0.0812876 0 0.865074 0.0801639 0 
0.886284 0.0790628 0 0.907522 0.0779761 0 0.928837 0.0769432 0 
0.950206 0.0759585 0 0.971633 0.0750384 0 0.993146 0.0742285 0 
1.01469 0.0734694 0 0 0.102041 0 0.0204082 0.102198 0 
0.0408164 0.102443 0 0.0612249 0.102886 0 0.0816336 0.103449 0 
0.102043 0.10411 0 0.122454 0.104891 0 0.142865 0.105709 0 
0.163279 0.106615 0 0.183695 0.107539 0 0.204115 0.108485 0 
0.224538 0.109435 0 0.244965 0.110374 0 0.265399 0.111282 0 
0.285837 0.112173 0 0.306287 0.11298 0 0.326741 0.113757 0 
0.347208 0.114442 0 0.367685 0.115058 0 0.388173 0.115596 0 
0.408678 0.116015 0 0.429191 0.116384 0 0.449732 0.116579 0 
0.470283 0.116719 0 0.490859 0.116715 0 0.511455 0.116611 0 
0.532073 0.116404 0 0.552723 0.116051 0 0.573387 0.115641 0 
0.594101 0.115043 0 0.614831 0.114392 0 0.635606 0.113606 0 
0.656413 0.11273 0 0.677255 0.11177 0 0.69815 0.110698 0 
0.719067 0.109584 0 0.740062 0.108352 0 0.761082 0.107089 0 
0.782169 0.105762 0 0.803305 0.104399 0 0.824493 0.103013 0 
0.845759 0.101609 0 0.867057 0.100205 0 0.888467 0.0988285 0 
0.909913 0.0974702 0 0.931454 0.096179 0 0.953064 0.0949482 0 
0.974745 0.093798 0 0.996534 0.0927856 0 1.01837 0.0918367 0 
0 0.122449 0 0.0204082 0.122638 0 0.0408164 0.122932 0 
0.0612249 0.123463 0 0.0816338 0.124139 0 0.102043 0.124932 0 
0.122454 0.125869 0 0.142866 0.12685 0 0.163282 0.127939 0 
0.183699 0.129046 0 0.204121 0.130182 0 0.224547 0.131322 0 
0.244978 0.132449 0 0.265418 0.133539 0 0.285861 0.134607 0 
0.306319 0.135576 0 0.326783 0.136508 0 0.347262 0.137331 0 
0.367752 0.13807 0 0.388256 0.138716 0 0.408781 0.139218 0 
0.429315 0.139661 0 0.449883 0.139895 0 0.470462 0.140062 0 
0.491072 0.140058 0 0.511705 0.139933 0 0.532365 0.139685 0 
0.553063 0.139261 0 0.573779 0.138769 0 0.594554 0.138052 0 
0.615349 0.13727 0 0.636196 0.136327 0 0.657083 0.135276 0 
0.678012 0.134125 0 0.699004 0.132837 0 0.720023 0.131501 0 
0.741136 0.130022 0 0.762278 0.128507 0 0.783501 0.126915 0 
0.804783 0.125279 0 0.826127 0.123616 0 0.847564 0.121931 0 
0.86904 0.120246 0 0.890651 0.118594 0 0.912304 0.116964 0 
0.934071 0.115415 0 0.955921 0.113938 0 0.977857 0.112558 0 
0.999923 0.111343 0 1.02204 0.110204 0 0 0.142857 0 
0.0204082 0.143077 0 0.0408164 0.143421 0 0.061225 0.14404 0 
0.081634 0.144828 0 0.102044 0.145754 0 0.122455 0.146847 0 
0.142868 0.147992 0 0.163285 0.149262 0 0.183703 0.150554 0 
0.204128 0.151879 0 0.224557 0.153209 0 0.244992 0.154524 0 
0.265437 0.155795 0 0.285886 0.157042 0 0.306352 0.158172 0 
0.326825 0.159259 0 0.347316 0.160219 0 0.36782 0.161082 0 
0.38834 0.161835 0 0.408884 0.162421 0 0.429439 0.162938 0 
0.450033 0.16321 0 0.470641 0.163406 0 0.491285 0.163401 0 
0.511956 0.163255 0 0.532657 0.162966 0 0.553404 0.162472 0 
0.57417 0.161897 0 0.595007 0.161061 0 0.615866 0.160148 0 
0.636787 0.159048 0 0.657754 0.157822 0 0.678769 0.156479 0 
0.699859 0.154977 0 0.720979 0.153418 0 0.742209 0.151693 0 
0.763474 0.149925 0 0.784833 0.148067 0 0.80626 0.146159 0 
0.82776 0.144219 0 0.849369 0.142253 0 0.871023 0.140287 0 
0.892834 0.13836 0 0.914695 0.136458 0 0.936689 0.134651 0 
0.958779 0.132927 0 0.98097 0.131317 0 1.00331 0.1299 0 
1.02571 0.128571 0 0 0.163265 0 0.0204082 0.163517 0 
0.0408164 0.163909 0 0.0612251 0.164617 0 0.0816342 0.165518 0 
0.102044 0.166576 0 0.122456 0.167825 0 0.142869 0.169134 0 
0.163288 0.170585 0 0.183708 0.172062 0 0.204134 0.173576 0 
0.224566 0.175096 0 0.245005 0.176598 0 0.265455 0.178052 0 
0.28591 0.179476 0 0.306385 0.180768 0 0.326867 0.182011 0 
0.34737 0.183108 0 0.367887 0.184093 0 0.388423 0.184954 0 
0.408987 0.185624 0 0.429563 0.186215 0 0.450184 0.186526 0 
0.47082 0.18675 0 0.491497 0.186744 0 0.512206 0.186577 0 
0.532949 0.186247 0 0.553744 0.185682 0 0.574562 0.185025 0 
0.59546 0.184069 0 0.616383 0.183026 0 0.637378 0.181769 0 
0.658424 0.180368 0 0.679526 0.178833 0 0.700713 0.177117 0 
0.721936 0.175335 0 0.743283 0.173363 0 0.76467 0.171342 0 
0.786165 0.169219 0 0.807737 0.167039 0 0.829393 0.164822 0 
0.851174 0.162575 0 0.873006 0.160328 0 0.895017 0.158126 0 
0.917086 0.155952 0 0.939306 0.153886 0 0.961636 0.151917 0 
0.984082 0.150077 0 1.0067 0.148457 0 1.02939 0.146939 0 
0 0.183673 0 0.0204082 0.183957 0 0.0408165 0.184398 0 
0.0612251 0.185194 0 0.0816344 0.186208 0 0.102045 0.187398 0 
0.122457 0.188803 0 0.142871 0.190275 0 0.16329 0.191908 0 
0.183712 0.19357 0 0.204141 0.195273 0 0.224576 0.196983 0 
0.245019 0.198673 0 0.265474 0.200308 0 0.285935 0.201911 0 
0.306418 0.203364 0 0.326909 0.204762 0 0.347423 0.205996 0 
0.367955 0.207105 0 0.388507 0.208074 0 0.40909 0.208827 0 
0.429687 0.209492 0 0.450334 0.209842 0 0.470999 0.210093 0 
0.49171 0.210087 0 0.512456 0.2099 0 0.533241 0.209528 0 
0.554085 0.208892 0 0.574954 0.208153 0 0.595912 0.207078 0 
0.6169 0.205905 0 0.637968 0.20449 0 0.659094 0.202914 0 
0.680283 0.201187 0 0.701568 0.199256 0 0.722892 0.197252 0 
0.744356 0.195033 0 0.765866 0.19276 0 0.787496 0.190372 0 
0.809215 0.187919 0 0.831027 0.185424 0 0.852979 0.182897 0 
0.874988 0.180369 0 0.8972 0.177891 0 0.919477 0.175446 0 
0.941923 0.173122 0 0.964494 0.170907 0 0.987194 0.168836 0 
[...]
POINT_DATA 2500
SCALARS Pressure double
LOOKUP_TABLE default
1.1 1.1 1.1 7.74536 7.59109 7.43876 7.29029 7.14181 6.99883 
6.85586 6.71626 1.1 1.1 1.1 6.17518 6.04567 5.91616 5.78872 
5.66232 5.53666 5.41249 5.28832 5.17196 5.0556 4.92741 4.7933 4.66289 
4.53986 4.41683 4.29175 1.1 1.1 1.1 3.79154 3.65316 3.51478 
3.38093 3.24708 3.1024 2.9523 2.79849 2.63727 2.47606 2.2725 2.06895 
1.88143 1.70193 1.32667 0.559894 -0.206886 8.24922 8.08675 7.92427 7.76707 
7.61249 7.45977 7.31074 7.1617 7.01787 6.87404 6.73337 6.59428 6.45658 
6.32167 6.18676 6.05536 5.92396 5.79439 5.66574 5.53771 5.41095 5.28419 
5.16211 5.04003 4.90963 4.77506 4.64314 4.5165 4.38987 4.26082 4.13177 
4.00217 3.8723 3.73931 3.60007 3.46084 3.31798 3.17512 3.02101 2.86127 
2.69643 2.52138 2.34634 2.13237 1.9184 1.67793 1.42421 1.03054 0.35699 
-0.31656 8.26761 8.10665 7.94568 7.78877 7.63389 7.48078 7.33119 7.18159 
7.03691 6.89222 6.75048 6.61022 6.47122 6.33478 6.19834 6.06505 5.93176 
5.80006 5.66916 5.53877 5.40942 5.28006 5.15227 5.02447 4.89185 4.75682 
4.62339 4.49315 4.36292 4.22989 4.09687 3.96145 3.82485 3.68708 3.54699 
3.40689 3.25503 3.10317 2.93963 2.77025 2.59437 2.40549 2.21662 1.99224 
1.76786 1.47443 1.14648 0.734406 0.154087 -0.426233 8.28487 8.12434 7.96382 
7.80686 7.65169 7.4982 7.34808 7.19797 7.0525 6.90703 6.76432 6.62298 
6.48283 6.34503 6.20722 6.07227 5.93732 5.80376 5.6709 5.53846 5.40686 
5.27525 5.14398 5.01272 4.87969 4.74578 4.61104 4.47464 4.33825 4.20173 
4.06521 3.92552 3.78423 3.64228 3.49898 3.35569 3.19754 3.03939 2.86879 
2.69197 2.50815 2.31037 2.11258 1.87784 1.64311 1.33565 0.99183 0.598161 
0.104801 -0.388559 8.30156 8.14094 7.98032 7.82314 7.66768 7.51383 7.3632 
7.21258 7.06636 6.92014 6.77651 6.63417 6.49291 6.35384 6.21476 6.07827 
5.94177 5.80649 5.67181 5.53746 5.40378 5.27009 5.13648 5.00288 4.87034 
4.73834 4.6024 4.45856 4.31472 4.17496 4.03519 3.89198 3.74704 3.60119 
3.45352 3.30585 3.14278 2.9797 2.80323 2.62006 2.42986 2.22562 2.02138 
1.77632 1.53126 1.22923 0.898714 0.541859 0.132324 -0.277211 8.31662 8.15591 
7.9952 7.83781 7.68206 7.52786 7.37675 7.22563 7.0787 6.93177 6.78727 
6.64398 6.5017 6.36144 6.22118 6.08325 5.94532 5.80845 5.67211 5.53601 
5.40042 5.26483 5.12908 4.99332 4.86047 4.72906 4.59163 4.44215 4.29266 
4.14993 4.00719 3.86077 3.7125 3.56331 3.41227 3.26122 3.09323 2.92523 
2.74361 2.55517 2.35976 2.15041 1.94106 1.68985 1.43863 1.14382 0.827211 
0.500657 0.154219 -0.192219 8.32843 8.16764 8.00684 7.84924 7.69323 7.5387 
7.38714 7.23557 7.08801 6.94044 6.79518 6.65106 6.5079 6.36662 6.22534 
6.08622 5.9471 5.80891 5.67118 5.53365 5.3965 5.25935 5.12185 4.98435 
4.84955 4.7161 4.57662 4.42507 4.27352 4.12838 3.98323 3.83422 3.68327 
3.53184 3.37943 3.22702 3.05411 2.88119 2.69586 2.50432 2.30604 2.09426 
1.88249 1.63348 1.38447 1.10045 0.798931 0.489653 0.164857 -0.15994 8.34025 
8.17936 8.01848 7.86067 7.70439 7.54954 7.39753 7.24552 7.09731 6.94911 
6.80308 6.65814 6.51409 6.3718 6.22951 6.08919 5.94887 5.80936 5.67026 
5.53129 5.39258 5.25387 5.11463 4.97539 4.83864 4.70314 4.5616 4.40799 
4.25437 4.10683 3.95928 3.80767 3.65405 3.50037 3.3466 3.19282 3.01498 
2.83714 2.64811 2.45347 2.25232 2.03812 1.82392 1.57711 1.3303 1.05708 
0.770652 0.478649 0.175494 -0.12766 8.34758 8.18662 8.02565 7.86766 7.71114 
7.556 7.40361 7.25121 7.10249 6.95376 6.80713 6.66155 6.51682 6.37378 
6.23074 6.08957 5.9484 5.80798 5.66793 5.52799 5.38824 5.24849 5.10811 
4.96772 4.82679 4.68559 4.54125 4.39064 4.24003 4.0909 3.94177 3.78849 
3.63314 3.47652 3.31736 3.15821 2.98034 2.80248 2.61496 2.42262 2.22255 
2.007 1.79146 1.54846 1.30545 1.04063 0.764895 0.485444 0.198556 -0.0883321 
8.35492 8.19387 8.03282 7.87464 7.71789 7.56246 7.40968 7.2569 7.10766 
6.95842 6.81119 6.66496 6.51955 6.37576 6.23197 6.08995 5.94793 5.8066 
5.66561 5.52469 5.3839 5.24312 5.10159 4.96005 4.81494 4.66804 4.5209 
4.37329 4.22569 4.07498 3.92427 3.76931 3.61223 3.45266 3.28813 3.12359 
2.9457 2.76782 2.58182 2.39177 2.19278 1.97589 1.759 1.5198 1.2806 
1.02418 0.759139 0.492239 0.221618 -0.0490039 8.35947 8.19834 8.03722 7.87887 
7.7219 7.56621 7.41309 7.25996 7.11028 6.96059 6.81287 6.66612 6.52017 
6.3758 6.23143 6.08879 5.94615 5.80417 5.66253 5.52094 5.37945 5.23797 
5.09568 4.95339 4.80648 4.65725 4.50874 4.36165 4.21457 4.06278 3.91099 
3.75488 3.59661 3.43544 3.26849 3.10154 2.92313 2.74473 2.55898 2.36956 
2.17108 1.95449 1.73789 1.50234 1.26678 1.01685 0.759722 0.501234 0.240024 
-0.0211872 8.36263 8.20143 8.04023 7.88171 7.72453 7.5686 7.41516 7.26171 
7.11162 6.96153 6.81336 6.66616 6.51973 6.37487 6.23001 6.08686 5.94371 
5.80122 5.65906 5.51695 5.37494 5.23293 5.09008 4.94723 4.7997 4.64984 
4.50067 4.35286 4.20506 4.05244 3.89983 3.74283 3.58364 3.42154 3.25365 
3.08576 2.90659 2.72742 2.54128 2.35166 2.15342 1.93794 1.72247 1.49047 
1.25848 1.01408 0.763475 0.51133 0.256102 0.000873854 8.36446 8.20319 8.04192 
7.88324 7.72586 7.56969 7.41595 7.26221 7.11175 6.96129 6.81273 6.66512 
6.51829 6.37302 6.22774 6.0842 5.94065 5.79778 5.65525 5.51276 5.37039 
5.22801 5.08479 4.94157 4.79363 4.64333 4.4937 4.34539 4.19708 4.04386 
3.89063 3.73296 3.57306 3.41025 3.24163 3.07301 2.89388 2.71475 2.52817 
2.33787 2.13954 1.92516 1.71078 1.48198 1.25318 1.01363 0.768714 0.522171 
0.272377 0.0225841 8.36364 8.20229 8.04095 7.88213 7.72457 7.56819 7.41419 
7.26019 7.10943 6.95868 6.80983 6.66193 6.51483 6.36931 6.22379 6.08007 
5.93635 5.79335 5.65072 5.50816 5.36575 5.22334 5.08012 4.9369 4.78894 
4.63861 4.48893 4.34055 4.19216 4.03876 3.88537 3.72745 3.56728 3.40418 
3.23524 3.0663 2.88883 2.71136 2.52424 2.33228 2.1332 1.91988 1.70656 
1.48022 1.25389 1.01784 0.776927 0.534503 0.289048 0.0435928 8.36281 8.2014 
8.03999 7.88102 7.72328 7.56669 7.41243 7.25817 7.10712 6.95607 6.80693 
6.65875 6.51137 6.36561 6.21984 6.07595 5.93205 5.78893 5.6462 5.50356 
5.36112 5.21868 5.07545 4.93223 4.78425 4.6339 4.48417 4.33571 4.18724 
4.03367 3.8801 3.72195 3.5615 3.39811 3.22885 3.05959 2.88378 2.70797 
2.5203 2.3267 2.12687 1.91461 1.70234 1.47847 1.25459 1.02204 0.785139 
0.546835 0.305718 0.0646016 8.35809 8.19662 8.03514 7.87605 7.71813 7.56137 
7.4069 7.25243 7.10119 6.94995 6.80066 6.65235 6.50488 6.35911 6.21334 
6.06958 5.92583 5.78296 5.64053 5.49824 5.35625 5.21425 5.07157 4.92889 
4.78551 4.64177 4.49461 4.34058 4.18655 4.03338 3.8802 3.72234 3.56213 
3.39894 3.22978 3.06062 2.88496 2.70929 2.52062 2.32545 2.12539 1.91554 
1.70569 1.48328 1.26086 1.03025 0.795549 0.559426 0.320465 0.0815036 8.35338 
8.19184 8.0303 7.87107 7.71299 7.55605 7.40138 7.2467 7.09526 6.94383 
6.79439 6.64595 6.49839 6.35261 6.20683 6.06321 5.9196 5.77698 5.63486 
5.49292 5.35137 5.20982 5.06769 4.92555 4.78676 4.64965 4.50505 4.34546 
4.18587 4.03309 3.88031 3.72273 3.56276 3.39976 3.2307 3.06164 2.88613 
2.71061 2.52095 2.32421 2.1239 1.91647 1.70904 1.48808 1.26713 1.03847 
0.80596 0.572017 0.335211 0.0984056 8.34606 8.18445 8.02285 7.8635 7.70527 
7.54817 7.39331 7.23845 7.08687 6.9353 6.78579 6.63731 6.48978 6.34413 
6.19849 6.05522 5.91195 5.76982 5.62826 5.48696 5.34617 5.20538 5.06414 
4.9229 4.78572 4.65056 4.50721 4.34748 4.18775 4.03571 3.88368 3.7267 
3.56726 3.40471 3.23595 3.06719 2.89191 2.71664 2.52669 2.32941 2.12906 
1.92257 1.71609 1.49597 1.27586 1.04835 0.817145 0.584487 0.348923 0.113359 
8.33744 8.17577 8.0141 7.85463 7.69625 7.53899 7.38397 7.22895 7.07725 
6.92556 6.77602 6.62756 6.48011 6.33467 6.18923 6.0464 5.90358 5.76206 
5.6212 5.48067 5.3408 5.20093 5.06077 4.92061 4.78352 4.64798 4.50523 
4.34808 4.19092 4.0398 3.88868 3.73246 3.57369 3.41172 3.24336 3.07499 
2.9 2.72501 2.53515 2.33784 2.13754 1.93127 1.72499 1.5054 1.28582 
1.05906 0.828717 0.596896 0.362118 0.127339 8.32748 8.16575 8.00402 7.84442 
7.6859 7.52849 7.3733 7.21812 7.06633 6.91455 6.76501 6.61661 6.46928 
6.32411 6.17894 6.03665 5.89437 5.75358 5.61354 5.47392 5.33513 5.19635 
5.05745 4.91854 4.78106 4.6443 4.502 4.34864 4.19528 4.04525 3.89521 
3.73989 3.58192 3.42091 3.25381 3.0867 2.91051 2.73431 2.54445 2.34777 
2.1479 1.94165 1.7354 1.51644 1.29747 1.07099 0.840761 0.609147 0.374773 
0.140399 8.31486 8.15306 7.99126 7.83155 7.67287 7.51531 7.35998 7.20465 
7.05281 6.90097 6.7515 6.60322 6.45612 6.31135 6.16657 6.02502 5.88347 
5.74365 5.60469 5.46626 5.32887 5.19149 5.05421 4.91694 4.77807 4.63841 
4.49626 4.34913 4.20201 4.05341 3.9048 3.75067 3.59378 3.43447 3.27035 
3.10622 2.92583 2.74543 2.55546 2.3607 2.16199 1.95542 1.74884 1.53068 
1.31252 1.08538 0.853747 0.621082 0.386351 0.15162 8.30223 8.14037 7.97851 
7.81867 7.65985 7.50214 7.34666 7.19118 7.03929 6.88739 6.73799 6.58984 
6.44295 6.29858 6.15421 6.01339 5.87257 5.73372 5.59585 5.4586 5.32262 
5.18663 5.05098 4.91533 4.77508 4.63252 4.49051 4.34963 4.20874 4.06156 
3.91439 3.76145 3.60563 3.44804 3.28689 3.12574 2.94115 2.75656 2.56647 
2.37362 2.17609 1.96919 1.76228 1.54493 1.32757 1.09976 0.866732 0.633017 
0.397929 0.162841 8.28543 8.12349 7.96155 7.80158 7.64259 7.48472 7.32909 
7.17346 7.02153 6.86959 6.72032 6.57239 6.42583 6.28202 6.13822 5.9984 
5.85859 5.72106 5.58466 5.44904 5.31495 5.18087 5.04743 4.91399 4.77601 
4.63576 4.49605 4.35743 4.21881 4.07361 3.92842 3.77714 3.62281 3.46573 
3.30313 3.14053 2.95849 2.77645 2.58693 2.39368 2.19557 1.98776 1.77996 
1.56027 1.34058 1.11188 0.878664 0.644358 0.407863 0.171369 8.26862 8.1066 
7.94459 7.78448 7.62533 7.4673 7.31152 7.15573 7.00376 6.8518 6.70266 
6.55493 6.4087 6.26546 6.12222 5.98342 5.84461 5.7084 5.57348 5.43947 
5.30729 5.17511 5.04388 4.91266 4.77695 4.63901 4.50159 4.36524 4.22888 
4.08566 3.94244 3.79282 3.64 3.48343 3.31938 3.15532 2.97583 2.79635 
2.6074 2.41373 2.21504 2.00634 1.79763 1.57561 1.35359 1.12399 0.890595 
0.655698 0.417798 0.179898 8.24885 8.08675 7.92465 7.76439 7.60504 7.44683 
7.29085 7.13488 6.98286 6.83085 6.68184 6.53434 6.38848 6.24589 6.10331 
5.96568 5.82806 5.69341 5.56025 5.42816 5.29825 5.16834 5.03976 4.91118 
4.7782 4.64303 4.50837 4.37474 4.24111 4.10028 3.95945 3.81184 3.66084 
3.50559 3.34184 3.17808 2.9996 2.82113 2.63212 2.43785 2.23833 2.02831 
1.81829 1.59409 1.36989 1.13844 0.903355 0.666615 0.42656 0.186504 8.22761 
8.06542 7.90322 7.74279 7.58324 7.42482 7.26864 7.11247 6.96039 6.80831 
6.65944 6.51218 6.36671 6.22482 6.08293 5.94658 5.81023 5.67727 5.54599 
5.41599 5.28853 5.16107 5.03535 4.90963 4.7796 4.64743 4.51576 4.38509 
4.25442 4.11619 3.97796 3.83254 3.68352 3.52999 3.3674 3.20482 3.02659 
2.84836 2.65897 2.464 2.26351 2.05198 1.84045 1.61414 1.38783 1.15405 
0.916528 0.67732 0.434735 0.192149 8.20578 8.04349 7.8812 7.72059 7.56082 
7.40203 7.24517 7.08831 6.93613 6.78396 6.63521 6.48818 6.3431 6.20193 
6.06076 5.92577 5.79078 5.65963 5.5304 5.40265 5.27785 5.15305 5.03044 
4.90783 4.78102 4.65212 4.5237 4.39625 4.26881 4.13341 3.99801 3.85499 
3.70816 3.55651 3.39523 3.23395 3.05599 2.87804 2.68822 2.49248 2.29089 
2.07763 1.86436 1.6356 1.40684 1.17046 0.93027 0.688229 0.44248 0.19673 
8.18276 8.02036 7.85797 7.69717 7.53717 7.37767 7.21916 7.06066 6.90832 
6.75598 6.60731 6.46046 6.31577 6.17539 6.035 5.90155 5.76809 5.63902 
5.51214 5.38698 5.26526 5.14354 5.02453 4.90553 4.78246 4.65736 4.53272 
4.40903 4.28533 4.15325 4.02118 3.88098 3.73672 3.58731 3.42758 3.26785 
3.09024 2.91263 2.72229 2.52559 2.32265 2.10722 1.89178 1.65988 1.42798 
1.18846 0.945149 0.699545 0.449363 0.199182 8.15973 7.99723 7.83473 7.67375 
7.51352 7.35331 7.19316 7.03301 6.8805 6.728 6.5794 6.43275 6.28845 
6.14885 6.00924 5.87732 5.7454 5.61841 5.49387 5.3713 5.25267 5.13403 
5.01863 4.90323 4.7839 4.6626 4.54175 4.4218 4.30185 4.1731 4.04434 
3.90697 3.76528 3.6181 3.45993 3.30175 3.12448 2.94721 2.75636 2.55871 
2.35441 2.1368 1.9192 1.68416 1.44912 1.20647 0.960028 0.71086 0.456247 
0.201633 8.12844 7.96576 7.80309 7.64176 7.48111 7.32092 7.16168 7.00243 
6.84824 6.69405 6.54492 6.39832 6.25432 6.11553 5.97673 5.84663 5.71653 
5.59207 5.47043 5.35106 5.23625 5.12144 5.01345 4.90546 4.7898 4.67029 
4.5522 4.43692 4.32164 4.19705 4.07247 3.93868 3.80029 3.65599 3.49988 
3.34378 3.16706 2.99035 2.79892 2.60013 2.39412 2.17366 1.9532 1.71384 
1.47447 1.22689 0.975206 0.720704 0.460567 0.200429 8.09715 7.9343 7.77145 
7.60978 7.4487 7.28853 7.13019 6.97185 6.81597 6.6601 6.51044 6.36388 
6.22018 6.0822 5.94422 5.81594 5.68766 5.56573 5.44698 5.33081 5.21983 
5.10884 5.00827 4.9077 4.7957 4.67799 4.56264 4.45203 4.34142 4.22101 
4.1006 3.97039 3.83529 3.69388 3.53984 3.3858 3.20964 3.03348 2.84147 
2.64155 2.43382 2.21052 1.98721 1.74351 1.49982 1.24731 0.990384 0.730548 
0.464886 0.199225 8.06238 7.89931 7.73623 7.57409 7.41241 7.25175 7.0931 
6.93445 6.77843 6.6224 6.47267 6.32609 6.18231 6.04414 5.90598 5.77976 
5.65354 5.53453 5.41913 5.30668 5.20013 5.09359 4.99921 4.90482 4.79784 
4.68454 4.57393 4.46869 4.36345 4.24786 4.13228 4.00626 3.87503 3.73704 
3.58553 3.43401 3.25867 3.08332 2.8908 2.6897 2.4801 2.2535 2.02691 
1.77798 1.52905 1.27043 1.00698 0.740456 0.46781 0.195163 8.02588 7.86256 
7.69923 7.53655 7.37419 7.21276 7.0532 6.89365 6.73824 6.58284 6.43326 
6.28661 6.14256 6.00371 5.86487 5.74082 5.61678 5.50089 5.38907 5.28059 
5.1788 5.077 4.9882 4.8994 4.79809 4.69053 4.58565 4.48612 4.38659 
4.27616 4.16573 4.04421 3.91715 3.78285 3.63409 3.48532 3.31092 3.13651 
2.94351 2.74122 2.52965 2.29955 2.06945 1.81483 1.56021 1.29491 1.02428 
0.750396 0.470034 0.189673 7.98404 7.82198 7.65992 7.4971 7.3339 7.17153 
7.01083 6.85012 6.6946 6.53908 6.3882 6.23964 6.09481 5.95743 5.82005 
5.69837 5.57669 5.46419 5.35628 5.25212 5.15546 5.0588 4.97618 4.89357 
4.79828 4.69665 4.59775 4.50433 4.4109 4.30599 4.20108 4.08441 3.96185 
3.83158 3.68586 3.54014 3.36689 3.19364 3.00027 2.79684 2.58329 2.34951 
2.11573 1.85608 1.59643 1.32315 1.04305 0.760058 0.47128 0.182502 7.93152 
7.77375 7.61599 7.45384 7.2895 7.12583 6.9635 6.80116 6.64406 6.48695 
6.33183 6.17769 6.03106 5.89944 5.76783 5.64889 5.52994 5.42138 5.31801 
5.21885 5.1281 5.03735 4.96215 4.88694 4.79833 4.70303 4.61064 4.52409 
4.43754 4.33889 4.24024 4.12912 4.01175 3.88615 3.74407 3.60199 3.43031 
3.25862 3.0651 2.86066 2.64509 2.40729 2.16948 1.90612 1.64276 1.35889 
1.06478 0.769166 0.470567 0.171968 7.87899 7.72552 7.57206 7.41059 7.2451 
7.08013 6.91616 6.7522 6.59351 6.43483 6.27545 6.11574 5.96731 5.84146 
5.71561 5.5994 5.48319 5.37857 5.27975 5.18559 5.10075 5.01591 4.94811 
4.88031 4.79839 4.70941 4.62353 4.54386 4.46418 4.3718 4.27941 4.17383 
4.06165 3.94072 3.80228 3.66384 3.49373 3.32361 3.12993 2.92448 2.7069 
2.46507 2.22323 1.95616 1.68909 1.39464 1.0865 0.778274 0.469854 0.161434 
7.83329 7.67447 7.51565 7.35099 7.1834 7.0176 6.85536 6.69312 6.5315 
6.36989 6.21177 6.0554 5.90799 5.77849 5.649 5.53652 5.42404 5.32461 
5.23172 5.14397 5.06651 4.98904 4.92912 4.86921 4.7956 4.71514 4.63764 
4.56606 4.49449 4.40955 4.32461 4.22575 4.11993 4.00482 3.87113 3.73743 
3.57221 3.40698 3.21302 3.00468 2.78588 2.54615 2.30642 2.02535 1.74427 
1.43579 1.11361 0.791098 0.467934 0.144771 7.7876 7.62342 7.45924 7.29139 
7.1217 6.95507 6.79455 6.63403 6.46949 6.30495 6.14809 5.99506 5.84866 
5.71553 5.5824 5.47364 5.36488 5.27066 5.1837 5.10236 5.03226 4.96216 
4.91014 4.85812 4.79281 4.72087 4.65175 4.58827 4.5248 4.4473 4.36981 
4.27768 4.17822 4.06893 3.93997 3.81101 3.65069 3.49036 3.2961 3.08488 
2.86486 2.62723 2.38961 2.09453 1.79946 1.47694 1.14071 0.803921 0.466014 
0.128108 7.74142 7.57429 7.40716 7.23614 7.06317 6.89224 6.72537 6.55851 
6.39269 6.22686 6.06935 5.91599 5.76971 5.63759 5.50546 5.40087 5.29627 
5.20826 5.12854 5.05487 4.99329 4.93172 4.88856 4.84539 4.7893 4.72673 
4.66683 4.61226 4.55768 4.48844 4.4192 4.33461 4.24236 4.13974 4.0164 
3.89306 3.73528 3.57749 3.38573 3.17698 2.95607 2.71082 2.46558 2.16059 
1.85559 1.52107 1.17177 0.820038 0.463423 0.106809 7.69498 7.52611 7.35724 
7.18306 7.00623 6.82926 6.65201 6.47477 6.30848 6.1422 5.98309 5.82756 
5.68095 5.55216 5.42336 5.32315 5.22293 5.14164 5.0698 5.00442 4.95196 
4.89949 4.86567 4.83186 4.78542 4.73267 4.68241 4.63713 4.59185 4.53126 
4.47068 4.39406 4.30942 4.21391 4.09663 3.97935 3.82292 3.6665 3.47863 
3.27504 3.0534 2.79567 2.53794 2.22508 1.91221 1.56668 1.20481 0.837801 
0.460497 0.0831925 7.65304 7.48091 7.30877 7.1298 6.94743 6.76322 6.57534 
6.38746 6.21812 6.04879 5.8873 5.72974 5.5825 5.45588 5.32927 5.23527 
5.14127 5.06792 5.0049 4.94902 4.90743 4.86584 4.84184 4.81784 4.78146 
4.73889 4.69863 4.663 4.62738 4.57775 4.52813 4.46061 4.38414 4.29629 
4.18567 4.07505 3.92155 3.76805 3.58361 3.38369 3.16108 2.89311 2.62514 
2.30281 1.98049 1.62151 1.24422 0.858899 0.457538 0.0561774 7.62008 7.44164 
7.2632 7.0762 6.88491 6.69105 6.49204 6.29303 6.11546 5.93789 5.77248 
5.61314 5.46467 5.33792 5.21117 5.12707 5.04297 4.98002 4.92765 4.88368 
4.85653 4.82937 4.81612 4.80286 4.77734 4.74568 4.71615 4.69089 4.66563 
4.63157 4.59751 4.54136 4.47416 4.3951 4.29235 4.1896 4.04214 3.89468 
3.71273 3.51352 3.28947 3.01574 2.742 2.40704 2.07209 1.6948 1.29635 
0.886666 0.454516 0.0223654 7.58712 7.40237 7.21763 7.02259 6.82239 6.61888 
6.40874 6.19859 6.01279 5.827 5.65766 5.49654 5.34684 5.21996 5.09308 
5.01888 4.94467 4.89213 4.85041 4.81835 4.80562 4.79289 4.79039 4.78788 
4.77322 4.75247 4.73368 4.71877 4.70387 4.68538 4.66689 4.62211 4.56417 
4.49392 4.39903 4.30415 4.16273 4.02131 3.84185 3.64336 3.41787 3.13836 
2.85885 2.51127 2.16369 1.76809 1.34848 0.914432 0.451493 -0.0114465 7.57596 
7.38306 7.19015 6.97657 6.75264 6.52639 6.29549 6.06459 5.86393 5.66328 
5.49068 5.3321 5.18891 5.07651 4.9641 4.90261 4.84112 4.80159 4.77305 
4.75298 4.74986 4.74674 4.75941 4.77208 4.77371 4.76981 4.7645 4.75636 
4.74821 4.73964 4.73108 4.69613 4.64799 4.58744 4.50206 4.41669 4.28249 
4.14829 3.96896 3.76706 3.54094 3.26635 2.99177 2.63807 2.28438 1.87054 
1.42665 0.962594 0.458235 -0.046125 7.56481 7.36374 7.16268 6.93055 6.68289 
6.4339 6.18224 5.93059 5.71507 5.49956 5.3237 5.16766 5.03099 4.93306 
4.83512 4.78635 4.73757 4.71106 4.69569 4.6876 4.69409 4.70058 4.72843 
4.75629 4.7742 4.78715 4.79532 4.79394 4.79255 4.79391 4.79526 4.77015 
4.7318 4.68095 4.6051 4.52924 4.40225 4.27527 4.09607 3.89076 3.66401 
3.39435 3.12469 2.76488 2.40506 1.973 1.50481 1.01076 0.464976 -0.0808035 
7.584 7.37238 7.16075 6.89513 6.60251 6.31244 6.02746 5.74249 5.52142 
5.30035 5.12911 4.98278 4.85811 4.77676 4.6954 4.6622 4.62899 4.61743 
4.6167 4.6225 4.64137 4.66024 4.69773 4.73521 4.76791 4.79821 4.82123 
4.82966 4.8381 4.8506 4.8631 4.84902 4.82165 4.78147 4.71568 4.64988 
4.53149 4.4131 4.24249 4.04576 3.82597 3.56003 3.2941 2.93037 2.56664 
2.12123 1.63497 1.10466 0.486233 -0.132191 7.61837 7.39499 7.17161 6.86501 
6.51681 6.17648 5.85191 5.52734 5.30537 5.0834 4.92072 4.7877 4.67777 
4.61404 4.55031 4.5341 4.5179 4.52226 4.53691 4.55754 4.59017 4.62281 
4.66716 4.71151 4.75823 4.80614 4.84468 4.86447 4.88426 4.90851 4.93277 
4.93031 4.91451 4.88549 4.83003 4.77457 4.66547 4.55636 4.39856 4.21642 
4.00738 3.74456 3.48174 3.11521 2.74867 2.29235 1.79113 1.22143 0.514747 
-0.191934 7.79919 7.49548 7.19177 6.80535 6.37759 5.97565 5.6254 5.27514 
5.06048 4.84583 4.69796 4.58347 4.49248 4.44849 4.4045 4.40619 4.40787 
4.42859 4.45884 4.49446 4.54083 4.5872 4.64109 4.69498 4.75463 4.81716 
4.86981 4.9027 4.9356 4.97011 5.00462 5.01344 5.00942 4.9912 4.94459 
4.89798 4.80111 4.70425 4.55778 4.38652 4.18683 3.93026 3.67369 3.30053 
2.92736 2.4584 1.94153 1.33933 0.566455 -0.206424 8.27292 7.75172 7.23053 
6.68661 6.13131 5.64507 5.29696 4.94884 4.75794 4.56704 4.44643 4.36097 
4.29732 4.2773 4.25728 4.27861 4.29994 4.33792 4.38422 4.43511 4.49519 
4.55526 4.62405 4.69284 4.7632 4.83435 4.89829 4.9478 4.9973 5.03908 
5.08085 5.10023 5.10842 5.1003 5.05957 5.01883 4.94011 4.86139 4.7233 
4.55554 4.36235 4.1183 3.87426 3.48681 3.09936 2.61429 2.08042 1.45951 
0.664553 -0.130407 8.74665 8.00797 7.2693 6.56786 5.88503 5.31449 4.96852 
4.62254 4.45539 4.28824 4.19491 4.13847 4.10217 4.10611 4.11006 4.15104 