# vtk DataFile Version 3.0
vtk output
ASCII
DATASET UNSTRUCTURED_GRID
POINTS 882 float
0 0 0 0.05 0 0 0.1 0 0 
0.15 0 0 0.2 0 0 0.25 0 0 
0.3 0 0 0.35 0 0 0.4 0 0 
0.45 0 0 0.5 0 0 0.55 0 0 
0.6 0 0 0.65 0 0 0.7 0 0 
0.75 0 0 0.8 0 0 0.85 0 0 
0.9 0 0 0.95 0 0 1 0 0 
0 0.005 0 0.05 0.005 0 0.1 0.005 0 
0.15 0.005 0 0.2 0.005 0 0.25 0.005 0 
0.3 0.005 0 0.35 0.005 0 0.4 0.005 0 
0.45 0.005 0 0.5 0.005 0 0.55 0.005 0 
0.6 0.005 0 0.65 0.005 0 0.7 0.005 0 
0.75 0.005 0 0.8 0.005 0 0.85 0.005 0 
0.9 0.005 0 0.95 0.005 0 1 0.005 0 
0 0.01 0 0.05 0.01 0 0.1 0.01 0 
0.15 0.01 0 0.2 0.01 0 0.25 0.01 0 
0.3 0.01 0 0.35 0.01 0 0.4 0.01 0 
0.45 0.01 0 0.5 0.01 0 0.55 0.01 0 
0.6 0.01 0 0.65 0.01 0 0.7 0.01 0 
0.75 0.01 0 0.8 0.01 0 0.85 0.01 0 
0.9 0.01 0 0.95 0.01 0 1 0.01 0 
0 0.015 0 0.05 0.015 0 0.1 0.015 0 
0.15 0.015 0 0.2 0.015 0 0.25 0.015 0 
0.3 0.015 0 0.35 0.015 0 0.4 0.015 0 
0.45 0.015 0 0.5 0.015 0 0.55 0.015 0 
0.6 0.015 0 0.65 0.015 0 0.7 0.015 0 
0.75 0.015 0 0.8 0.015 0 0.85 0.015 0 
0.9 0.015 0 0.95 0.015 0 1 0.015 0 
0 0.02 0 0.05 0.02 0 0.1 0.02 0 
0.15 0.02 0 0.2 0.02 0 0.25 0.02 0 
0.3 0.02 0 0.35 0.02 0 0.4 0.02 0 
0.45 0.02 0 0.5 0.02 0 0.55 0.02 0 
0.6 0.02 0 0.65 0.02 0 0.7 0.02 0 
0.75 0.02 0 0.8 0.02 0 0.85 0.02 0 
0.9 0.02 0 0.95 0.02 0 1 0.02 0 
0 0.025 0 0.05 0.025 0 0.1 0.025 0 
0.15 0.025 0 0.2 0.025 0 0.25 0.025 0 
0.3 0.025 0 0.35 0.025 0 0.4 0.025 0 
0.45 0.025 0 0.5 0.025 0 0.55 0.025 0 
0.6 0.025 0 0.65 0.025 0 0.7 0.025 0 
0.75 0.025 0 0.8 0.025 0 0.85 0.025 0 
0.9 0.025 0 0.95 0.025 0 1 0.025 0 
0 0.03 0 0.05 0.03 0 0.1 0.03 0 
0.15 0.03 0 0.2 0.03 0 0.25 0.03 0 
0.3 0.03 0 0.35 0.03 0 0.4 0.03 0 
0.45 0.03 0 0.5 0.03 0 0.55 0.03 0 
0.6 0.03 0 0.65 0.03 0 0.7 0.03 0 
0.75 0.03 0 0.8 0.03 0 0.85 0.03 0 
0.9 0.03 0 0.95 0.03 0 1 0.03 0 
0 0.035 0 0.05 0.035 0 0.1 0.035 0 
0.15 0.035 0 0.2 0.035 0 0.25 0.035 0 
0.3 0.035 0 0.35 0.035 0 0.4 0.035 0 
0.45 0.035 0 0.5 0.035 0 0.55 0.035 0 
0.6 0.035 0 0.65 0.035 0 0.7 0.035 0 
0.75 0.035 0 0.8 0.035 0 0.85 0.035 0 
0.9 0.035 0 0.95 0.035 0 1 0.035 0 
0 0.04 0 0.05 0.04 0 0.1 0.04 0 
0.15 0.04 0 0.2 0.04 0 0.25 0.04 0 
0.3 0.04 0 0.35 0.04 0 0.4 0.04 0 
0.45 0.04 0 0.5 0.04 0 0.55 0.04 0 
0.6 0.04 0 0.65 0.04 0 0.7 0.04 0 
0.75 0.04 0 0.8 0.04 0 0.85 0.04 0 
0.9 0.04 0 0.95 0.04 0 1 0.04 0 
0 0.045 0 0.05 0.045 0 0.1 0.045 0 
0.15 0.045 0 0.2 0.045 0 0.25 0.045 0 
0.3 0.045 0 0.35 0.045 0 0.4 0.045 0 
0.45 0.045 0 0.5 0.045 0 0.55 0.045 0 
0.6 0.045 0 0.65 0.045 0 0.7 0.045 0 
0.75 0.045 0 0.8 0.045 0 0.85 0.045 0 
0.9 0.045 0 0.95 0.045 0 1 0.045 0 
0 0.05 0 0.05 0.05 0 0.1 0.05 0 
0.15 0.05 0 0.2 0.05 0 0.25 0.05 0 
0.3 0.05 0 0.35 0.05 0 0.4 0.05 0 
0.45 0.05 0 0.5 0.05 0 0.55 0.05 0 
0.6 0.05 0 0.65 0.05 0 0.7 0.05 0 
0.75 0.05 0 0.8 0.05 0 0.85 0.05 0 
0.9 0.05 0 0.95 0.05 0 1 0.05 0 
0 0.055 0 0.05 0.055 0 0.1 0.055 0 
0.15 0.055 0 0.2 0.055 0 0.25 0.055 0 
0.3 0.055 0 0.35 0.055 0 0.4 0.055 0 
0.45 0.055 0 0.5 0.055 0 0.55 0.055 0 
0.6 0.055 0 0.65 0.055 0 0.7 0.055 0 
0.75 0.055 0 0.8 0.055 0 0.85 0.055 0 
0.9 0.055 0 0.95 0.055 0 1 0.055 0 
0 0.06 0 0.05 0.06 0 0.1 0.06 0 
0.15 0.06 0 0.2 0.06 0 0.25 0.06 0 
0.3 0.06 0 0.35 0.06 0 0.4 0.06 0 
0.45 0.06 0 0.5 0.06 0 0.55 0.06 0 
0.6 0.06 0 0.65 0.06 0 0.7 0.06 0 
0.75 0.06 0 0.8 0.06 0 0.85 0.06 0 
0.9 0.06 0 0.95 0.06 0 1 0.06 0 
0 0.065 0 0.05 0.065 0 0.1 0.065 0 
0.15 0.065 0 0.2 0.065 0 0.25 0.065 0 
0.3 0.065 0 0.35 0.065 0 0.4 0.065 0 
0.45 0.065 0 0.5 0.065 0 0.55 0.065 0 
0.6 0.065 0 0.65 0.065 0 0.7 0.065 0 
0.75 0.065 0 0.8 0.065 0 0.85 0.065 0 
0.9 0.065 0 0.95 0.065 0 1 0.065 0 
0 0.07 0 0.05 0.07 0 0.1 0.07 0 
0.15 0.07 0 0.2 0.07 0 0.25 0.07 0 
0.3 0.07 0 0.35 0.07 0 0.4 0.07 0 
0.45 0.07 0 0.5 0.07 0 0.55 0.07 0 
0.6 0.07 0 0.65 0.07 0 0.7 0.07 0 
0.75 0.07 0 0.8 0.07 0 0.85 0.07 0 
0.9 0.07 0 0.95 0.07 0 1 0.07 0 
0 0.075 0 0.05 0.075 0 0.1 0.075 0 
0.15 0.075 0 0.2 0.075 0 0.25 0.075 0 
0.3 0.075 0 0.35 0.075 0 0.4 0.075 0 
0.45 0.075 0 0.5 0.075 0 0.55 0.075 0 
0.6 0.075 0 0.65 0.075 0 0.7 0.075 0 
0.75 0.075 0 0.8 0.075 0 0.85 0.075 0 
0.9 0.075 0 0.95 0.075 0 1 0.075 0 
0 0.08 0 0.05 0.08 0 0.1 0.08 0 
0.15 0.08 0 0.2 0.08 0 0.25 0.08 0 
0.3 0.08 0 0.35 0.08 0 0.4 0.08 0 
0.45 0.08 0 0.5 0.08 0 0.55 0.08 0 
0.6 0.08 0 0.65 0.08 0 0.7 0.08 0 
0.75 0.08 0 0.8 0.08 0 0.85 0.08 0 
0.9 0.08 0 0.95 0.08 0 1 0.08 0 
0 0.085 0 0.05 0.085 0 0.1 0.085 0 
0.15 0.085 0 0.2 0.085 0 0.25 0.085 0 
0.3 0.085 0 0.35 0.085 0 0.4 0.085 0 
0.45 0.085 0 0.5 0.085 0 0.55 0.085 0 
0.6 0.085 0 0.65 0.085 0 0.7 0.085 0 
0.75 0.085 0 0.8 0.085 0 0.85 0.085 0 
0.9 0.085 0 0.95 0.085 0 1 0.085 0 
0 0.09 0 0.05 0.09 0 0.1 0.09 0 
0.15 0.09 0 0.2 0.09 0 0.25 0.09 0 
0.3 0.09 0 0.35 0.09 0 0.4 0.09 0 
0.45 0.09 0 0.5 0.09 0 0.55 0.09 0 
0.6 0.09 0 0.65 0.09 0 0.7 0.09 0 
0.75 0.09 0 0.8 0.09 0 0.85 0.09 0 
0.9 0.09 0 0.95 0.09 0 1 0.09 0 
0 0.095 0 0.05 0.095 0 0.1 0.095 0 
0.15 0.095 0 0.2 0.095 0 0.25 0.095 0 
0.3 0.095 0 0.35 0.095 0 0.4 0.095 0 
0.45 0.095 0 0.5 0.095 0 0.55 0.095 0 
0.6 0.095 0 0.65 0.095 0 0.7 0.095 0 
0.75 0.095 0 0.8 0.095 0 0.85 0.095 0 
0.9 0.095 0 0.95 0.095 0 1 0.095 0 
0 0.1 0 0.05 0.1 0 0.1 0.1 0 
0.15 0.1 0 0.2 0.1 0 0.25 0.1 0 
0.3 0.1 0 0.35 0.1 0 0.4 0.1 0 
0.45 0.1 0 0.5 0.1 0 0.55 0.1 0 
0.6 0.1 0 0.65 0.1 0 0.7 0.1 0 
0.75 0.1 0 0.8 0.1 0 0.85 0.1 0 
0.9 0.1 0 0.95 0.1 0 1 0.1 0 
0 0 0.01 0.05 0 0.01 0.1 0 0.01 
0.15 0 0.01 0.2 0 0.01 0.25 0 0.01 
0.3 0 0.01 0.35 0 0.01 0.4 0 0.01 
0.45 0 0.01 0.5 0 0.01 0.55 0 0.01 
0.6 0 0.01 0.65 0 0.01 0.7 0 0.01 
0.75 0 0.01 0.8 0 0.01 0.85 0 0.01 
0.9 0 0.01 0.95 0 0.01 1 0 0.01 
0 0.005 0.01 0.05 0.005 0.01 0.1 0.005 0.01 
0.15 0.005 0.01 0.2 0.005 0.01 0.25 0.005 0.01 
0.3 0.005 0.01 0.35 0.005 0.01 0.4 0.005 0.01 
0.45 0.005 0.01 0.5 0.005 0.01 0.55 0.005 0.01 
0.6 0.005 0.01 0.65 0.005 0.01 0.7 0.005 0.01 
0.75 0.005 0.01 0.8 0.005 0.01 0.85 0.005 0.01 
0.9 0.005 0.01 0.95 0.005 0.01 1 0.005 0.01 
0 0.01 0.01 0.05 0.01 0.01 0.1 0.01 0.01 
0.15 0.01 0.01 0.2 0.01 0.01 0.25 0.01 0.01 
0.3 0.01 0.01 0.35 0.01 0.01 0.4 0.01 0.01 
0.45 0.01 0.01 0.5 0.01 0.01 0.55 0.01 0.01 
0.6 0.01 0.01 0.65 0.01 0.01 0.7 0.01 0.01 
0.75 0.01 0.01 0.8 0.01 0.01 0.85 0.01 0.01 
0.9 0.01 0.01 0.95 0.01 0.01 1 0.01 0.01 
0 0.015 0.01 0.05 0.015 0.01 0.1 0.015 0.01 
0.15 0.015 0.01 0.2 0.015 0.01 0.25 0.015 0.01 
0.3 0.015 0.01 0.35 0.015 0.01 0.4 0.015 0.01 
0.45 0.015 0.01 0.5 0.015 0.01 0.55 0.015 0.01 
0.6 0.015 0.01 0.65 0.015 0.01 0.7 0.015 0.01 
0.75 0.015 0.01 0.8 0.015 0.01 0.85 0.015 0.01 
0.9 0.015 0.01 0.95 0.015 0.01 1 0.015 0.01 
0 0.02 0.01 0.05 0.02 0.01 0.1 0.02 0.01 
0.15 0.02 0.01 0.2 0.02 0.01 0.25 0.02 0.01 
0.3 0.02 0.01 0.35 0.02 0.01 0.4 0.02 0.01 
0.45 0.02 0.01 0.5 0.02 0.01 0.55 0.02 0.01 
0.6 0.02 0.01 0.65 0.02 0.01 0.7 0.02 0.01 
0.75 0.02 0.01 0.8 0.02 0.01 0.85 0.02 0.01 
0.9 0.02 0.01 0.95 0.02 0.01 1 0.02 0.01 
0 0.025 0.01 0.05 0.025 0.01 0.1 0.025 0.01 
0.15 0.025 0.01 0.2 0.025 0.01 0.25 0.025 0.01 
0.3 0.025 0.01 0.35 0.025 0.01 0.4 0.025 0.01 
0.45 0.025 0.01 0.5 0.025 0.01 0.55 0.025 0.01 
0.6 0.025 0.01 0.65 0.025 0.01 0.7 0.025 0.01 
0.75 0.025 0.01 0.8 0.025 0.01 0.85 0.025 0.01 
0.9 0.025 0.01 0.95 0.025 0.01 1 0.025 0.01 
0 0.03 0.01 0.05 0.03 0.01 0.1 0.03 0.01 
0.15 0.03 0.01 0.2 0.03 0.01 0.25 0.03 0.01 
0.3 0.03 0.01 0.35 0.03 0.01 0.4 0.03 0.01 
0.45 0.03 0.01 0.5 0.03 0.01 0.55 0.03 0.01 
0.6 0.03 0.01 0.65 0.03 0.01 0.7 0.03 0.01 
0.75 0.03 0.01 0.8 0.03 0.01 0.85 0.03 0.01 
0.9 0.03 0.01 0.95 0.03 0.01 1 0.03 0.01 
0 0.035 0.01 0.05 0.035 0.01 0.1 0.035 0.01 
0.15 0.035 0.01 0.2 0.035 0.01 0.25 0.035 0.01 
0.3 0.035 0.01 0.35 0.035 0.01 0.4 0.035 0.01 
0.45 0.035 0.01 0.5 0.035 0.01 0.55 0.035 0.01 
0.6 0.035 0.01 0.65 0.035 0.01 0.7 0.035 0.01 
0.75 0.035 0.01 0.8 0.035 0.01 0.85 0.035 0.01 
0.9 0.035 0.01 0.95 0.035 0.01 1 0.035 0.01 
0 0.04 0.01 0.05 0.04 0.01 0.1 0.04 0.01 
0.15 0.04 0.01 0.2 0.04 0.01 0.25 0.04 0.01 
0.3 0.04 0.01 0.35 0.04 0.01 0.4 0.04 0.01 
0.45 0.04 0.01 0.5 0.04 0.01 0.55 0.04 0.01 
0.6 0.04 0.01 0.65 0.04 0.01 0.7 0.04 0.01 
0.75 0.04 0.01 0.8 0.04 0.01 0.85 0.04 0.01 
0.9 0.04 0.01 0.95 0.04 0.01 1 0.04 0.01 
0 0.045 0.01 0.05 0.045 0.01 0.1 0.045 0.01 
0.15 0.045 0.01 0.2 0.045 0.01 0.25 0.045 0.01 
0.3 0.045 0.01 0.35 0.045 0.01 0.4 0.045 0.01 
0.45 0.045 0.01 0.5 0.045 0.01 0.55 0.045 0.01 
0.6 0.045 0.01 0.65 0.045 0.01 0.7 0.045 0.01 
0.75 0.045 0.01 0.8 0.045 0.01 0.85 0.045 0.01 
0.9 0.045 0.01 0.95 0.045 0.01 1 0.045 0.01 
0 0.05 0.01 0.05 0.05 0.01 0.1 0.05 0.01 
0.15 0.05 0.01 0.2 0.05 0.01 0.25 0.05 0.01 
0.3 0.05 0.01 0.35 0.05 0.01 0.4 0.05 0.01 
0.45 0.05 0.01 0.5 0.05 0.01 0.55 0.05 0.01 
0.6 0.05 0.01 0.65 0.05 0.01 0.7 0.05 0.01 
0.75 0.05 0.01 0.8 0.05 0.01 0.85 0.05 0.01 
0.9 0.05 0.01 0.95 0.05 0.01 1 0.05 0.01 
0 0.055 0.01 0.05 0.055 0.01 0.1 0.055 0.01 
0.15 0.055 0.01 0.2 0.055 0.01 0.25 0.055 0.01 
0.3 0.055 0.01 0.35 0.055 0.01 0.4 0.055 0.01 
0.45 0.055 0.01 0.5 0.055 0.01 0.55 0.055 0.01 
0.6 0.055 0.01 0.65 0.055 0.01 0.7 0.055 0.01 
0.75 0.055 0.01 0.8 0.055 0.01 0.85 0.055 0.01 
0.9 0.055 0.01 0.95 0.055 0.01 1 0.055 0.01 
0 0.06 0.01 0.05 0.06 0.01 0.1 0.06 0.01 
0.15 0.06 0.01 0.2 0.06 0.01 0.25 0.06 0.01 
0.3 0.06 0.01 0.35 0.06 0.01 0.4 0.06 0.01 
0.45 0.06 0.01 0.5 0.06 0.01 0.55 0.06 0.01 
0.6 0.06 0.01 0.65 0.06 0.01 0.7 0.06 0.01 
0.75 0.06 0.01 0.8 0.06 0.01 0.85 0.06 0.01 
0.9 0.06 0.01 0.95 0.06 0.01 1 0.06 0.01 
0 0.065 0.01 0.05 0.065 0.01 0.1 0.065 0.01 
0.15 0.065 0.01 0.2 0.065 0.01 0.25 0.065 0.01 
0.3 0.065 0.01 0.35 0.065 0.01 0.4 0.065 0.01 
0.45 0.065 0.01 0.5 0.065 0.01 0.55 0.065 0.01 
0.6 0.065 0.01 0.65 0.065 0.01 0.7 0.065 0.01 
0.75 0.065 0.01 0.8 0.065 0.01 0.85 0.065 0.01 
0.9 0.065 0.01 0.95 0.065 0.01 1 0.065 0.01 
0 0.07 0.01 0.05 0.07 0.01 0.1 0.07 0.01 
0.15 0.07 0.01 0.2 0.07 0.01 0.25 0.07 0.01 
0.3 0.07 0.01 0.35 0.07 0.01 0.4 0.07 0.01 
0.45 0.07 0.01 0.5 0.07 0.01 0.55 0.07 0.01 
0.6 0.07 0.01 0.65 0.07 0.01 0.7 0.07 0.01 
0.75 0.07 0.01 0.8 0.07 0.01 0.85 0.07 0.01 
[...]
CELL_DATA 400
FIELD FieldData 3
cellID 1 400 int
0 1 2 3 4 5 6 7 8 
9 10 11 12 13 14 15 16 17 
18 19 20 21 22 23 24 25 26 
27 28 29 30 31 32 33 34 35 
36 37 38 39 40 41 42 43 44 
45 46 47 48 49 50 51 52 53 
54 55 56 57 58 59 60 61 62 
63 64 65 66 67 68 69 70 71 
72 73 74 75 76 77 78 79 80 
81 82 83 84 85 86 87 88 89 
90 91 92 93 94 95 96 97 98 
99 100 101 102 103 104 105 106 107 
108 109 110 111 112 113 114 115 116 
117 118 119 120 121 122 123 124 125 
126 127 128 129 130 131 132 133 134 
135 136 137 138 139 140 141 142 143 
144 145 146 147 148 149 150 151 152 
153 154 155 156 157 158 159 160 161 
162 163 164 165 166 167 168 169 170 
171 172 173 174 175 176 177 178 179 
180 181 182 183 184 185 186 187 188 
189 190 191 192 193 194 195 196 197 
198 199 200 201 202 203 204 205 206 
207 208 209 210 211 212 213 214 215 
216 217 218 219 220 221 222 223 224 
225 226 227 228 229 230 231 232 233 
234 235 236 237 238 239 240 241 242 
243 244 245 246 247 248 249 250 251 
252 253 254 255 256 257 258 259 260 
261 262 263 264 265 266 267 268 269 
270 271 272 273 274 275 276 277 278 
279 280 281 282 283 284 285 286 287 
288 289 290 291 292 293 294 295 296 
297 298 299 300 301 302 303 304 305 
306 307 308 309 310 311 312 313 314 
315 316 317 318 319 320 321 322 323 
324 325 326 327 328 329 330 331 332 
333 334 335 336 337 338 339 340 341 
342 343 344 345 346 347 348 349 350 
351 352 353 354 355 356 357 358 359 
360 361 362 363 364 365 366 367 368 
369 370 371 372 373 374 375 376 377 
378 379 380 381 382 383 384 385 386 
387 388 389 390 391 392 393 394 395 
396 397 398 399 
p 1 400 double
1.1 1.1 1.1 0.825 0.775 0.725 0.675 0.625 0.575 
0.525 0.475 1.1 1.1 1.1 0.275 0.225 0.175 0.125 
0.075 0.025 0.975 0.925 0.875 0.825 0.775 0.725 0.675 
0.625 0.575 0.525 1.1 1.1 1.1 0.325 0.275 0.225 
0.175 0.125 0.075 0.025 0.975 0.925 0.875 0.825 0.775 
0.725 0.675 0.625 0.575 0.525 0.475 0.425 0.375 0.325 
0.275 0.225 0.175 0.125 0.075 0.025 0.975 0.925 0.875 
0.825 0.775 0.725 0.675 0.625 0.575 0.525 0.475 0.425 
0.375 0.325 0.275 0.225 0.175 0.125 0.075 0.025 0.975 
0.925 0.875 0.825 0.775 0.725 0.675 0.625 0.575 0.525 
0.475 0.425 0.375 0.325 0.275 0.225 0.175 0.125 0.075 
0.025 0.975 0.925 0.875 0.825 0.775 0.725 0.675 0.625 
0.575 0.525 0.475 0.425 0.375 0.325 0.275 0.225 0.175 
0.125 0.075 0.025 0.975 0.925 0.875 0.825 0.775 0.725 
0.675 0.625 0.575 0.525 0.475 0.425 0.375 0.325 0.275 
0.225 0.175 0.125 0.075 0.025 0.975 0.925 0.875 0.825 
0.775 0.725 0.675 0.625 0.575 0.525 0.475 0.425 0.375 
0.325 0.275 0.225 0.175 0.125 0.075 0.025 0.975 0.925 
0.875 0.825 0.775 0.725 0.675 0.625 0.575 0.525 0.475 
0.425 0.375 0.325 0.275 0.225 0.175 0.125 0.075 0.025 
0.975 0.925 0.875 0.825 0.775 0.725 0.675 0.625 0.575 
0.525 0.475 0.425 0.375 0.325 0.275 0.225 0.175 0.125 
0.075 0.025 0.975 0.925 0.875 0.825 0.775 0.725 0.675 
0.625 0.575 0.525 0.475 0.425 0.375 0.325 0.275 0.225 
0.175 0.125 0.075 0.025 0.975 0.925 0.875 0.825 0.775 
0.725 0.675 0.625 0.575 0.525 0.475 0.425 0.375 0.325 
0.275 0.225 0.175 0.125 0.075 0.025 0.975 0.925 0.875 
0.825 0.775 0.725 0.675 0.625 0.575 0.525 0.475 0.425 
0.375 0.325 0.275 0.225 0.175 0.125 0.075 0.025 0.975 
0.925 0.875 0.825 0.775 0.725 0.675 0.625 0.575 0.525 
0.475 0.425 0.375 0.325 0.275 0.225 0.175 0.125 0.075 
0.025 0.975 0.925 0.875 0.825 0.775 0.725 0.675 0.625 
0.575 0.525 0.475 0.425 0.375 0.325 0.275 0.225 0.175 
0.125 0.075 0.025 0.975 0.925 0.875 0.825 0.775 0.725 
0.675 0.625 0.575 0.525 0.475 0.425 0.375 0.325 0.275 
0.225 0.175 0.125 0.075 0.025 0.975 0.925 0.875 0.825 
0.775 0.725 0.675 0.625 0.575 0.525 0.475 0.425 0.375 
0.325 0.275 0.225 0.175 0.125 0.075 0.025 0.975 0.925 
0.875 0.825 0.775 0.725 0.675 0.625 0.575 0.525 0.475 
0.425 0.375 0.325 0.275 0.225 0.175 0.125 0.075 0.025 
0.975 0.925 0.875 0.825 0.775 0.725 0.675 0.625 0.575 
0.525 0.475 0.425 0.375 0.325 0.275 0.225 0.175 0.125 
0.075 0.025 0.975 0.925 0.875 0.825 0.775 0.725 0.675 
0.625 0.575 0.525 0.475 0.425 0.375 0.325 0.275 0.225 
0.175 0.125 0.075 0.025 
U 3 400 float
0.0124996 3.25647e-11 0 0.0124996 3.68307e-11 0 0.0124996 -1.85258e-11 0 
0.0124996 -7.27799e-12 0 0.0124996 5.87252e-11 0 0.0124996 1.14023e-10 0 
0.0124996 3.14272e-11 0 0.0124996 2.91284e-14 0 0.0124996 7.08693e-11 0 
0.0124996 1.02542e-10 0 0.0124996 8.83479e-11 0 0.0124996 -1.33852e-11 0 
0.0124996 2.31267e-13 0 0.0124996 1.20757e-11 0 0.0124996 4.00775e-11 0 
0.0124996 5.17989e-12 0 0.0124996 -5.02765e-11 0 0.0124996 -4.58436e-11 0 
0.0124996 5.54133e-12 0 0.0124996 1.74814e-11 0 0.0349989 -2.38435e-11 0 
0.0349989 -2.60547e-11 0 0.0349989 7.56349e-11 0 0.0349989 1.29346e-10 0 
0.0349989 5.51645e-11 0 0.0349989 1.6885e-10 0 0.0349989 1.21659e-10 0 
0.0349989 1.76654e-10 0 0.0349989 2.43337e-10 0 0.0349989 9.12847e-11 0 
0.0349989 1.88774e-10 0 0.0349989 1.22371e-10 0 0.0349989 1.2178e-10 0 
0.0349989 9.75876e-11 0 0.0349989 1.34436e-11 0 0.0349989 6.08965e-11 0 
0.0349989 4.61561e-12 0 0.0349989 1.86438e-11 0 0.0349989 -2.87208e-11 0 
0.0349989 3.96499e-11 0 0.0549981 5.3174e-12 0 0.0549981 1.05517e-11 0 
0.0549982 3.78282e-12 0 0.0549982 2.21946e-10 0 0.0549981 2.92253e-10 0 
0.0549981 3.58652e-10 0 0.0549982 2.29497e-10 0 0.0549982 2.22686e-10 0 
0.0549981 5.58731e-10 0 0.0549981 3.16175e-10 0 0.0549982 3.19982e-10 0 
0.0549982 1.77232e-10 0 0.0549982 1.49854e-10 0 0.0549982 2.10805e-10 0 
0.0549982 8.02845e-11 0 0.0549982 6.28672e-11 0 0.0549982 -1.21197e-10 0 
0.0549982 8.30517e-12 0 0.0549982 -1.84892e-11 0 0.0549982 5.73559e-11 0 
0.0724975 -5.253e-11 0 0.0724975 -4.8585e-11 0 0.0724975 -4.80571e-12 0 
0.0724975 3.77756e-10 0 0.0724975 4.27583e-10 0 0.0724975 3.73964e-10 0 
0.0724975 3.10776e-10 0 0.0724975 3.16653e-10 0 0.0724975 8.24992e-10 0 
0.0724975 3.56859e-10 0 0.0724975 3.20868e-10 0 0.0724975 2.96657e-10 0 
0.0724975 2.14976e-10 0 0.0724975 3.43656e-10 0 0.0724975 6.26317e-11 0 
0.0724975 8.6332e-11 0 0.0724975 -1.55973e-10 0 0.0724975 1.10908e-10 0 
0.0724975 -3.48695e-11 0 0.0724975 5.77958e-11 0 0.0874969 -6.03931e-11 0 
0.0874969 -5.23906e-11 0 0.0874969 -3.54114e-11 0 0.0874969 4.77204e-10 0 
0.0874969 5.84016e-10 0 0.0874969 4.56061e-10 0 0.0874969 3.87167e-10 0 
0.0874969 3.63321e-10 0 0.0874969 1.06589e-09 0 0.0874969 4.62011e-10 0 
0.0874969 3.51047e-10 0 0.0874969 3.74186e-10 0 0.0874969 2.66431e-10 0 
0.0874969 4.62375e-10 0 0.0874969 9.31553e-11 0 0.0874969 1.21468e-10 0 
0.0874969 -2.14135e-10 0 0.0874969 1.78189e-10 0 0.0874969 -2.84261e-11 0 
0.0874969 5.7639e-11 0 0.0999963 -5.941e-11 0 0.0999963 -3.64212e-11 0 
0.0999963 -6.01457e-11 0 0.0999963 5.47878e-10 0 0.0999963 6.96995e-10 0 
0.0999963 5.11516e-10 0 0.0999963 4.46919e-10 0 0.0999963 3.69162e-10 0 
0.0999963 1.24537e-09 0 0.0999963 5.35126e-10 0 0.0999963 3.57693e-10 0 
0.0999963 4.45585e-10 0 0.0999963 3.08465e-10 0 0.0999963 5.74584e-10 0 
0.0999963 1.26301e-10 0 0.0999963 1.75546e-10 0 0.0999963 -2.48935e-10 0 
0.0999963 2.54308e-10 0 0.0999963 -1.83066e-11 0 0.0999963 5.64682e-11 0 
0.109996 -4.04692e-11 0 0.109996 9.49512e-12 0 0.109996 -8.75922e-11 0 
0.109996 5.75521e-10 0 0.109996 7.65769e-10 0 0.109996 5.57043e-10 0 
0.109996 4.81237e-10 0 0.109996 3.25321e-10 0 0.109996 1.35978e-09 0 
0.109996 5.91623e-10 0 0.109996 3.57759e-10 0 0.109996 4.93176e-10 0 
0.109996 3.40342e-10 0 0.109996 6.74605e-10 0 0.109996 1.73523e-10 0 
0.109996 2.4565e-10 0 0.109996 -2.68705e-10 0 0.109996 3.22124e-10 0 
0.109996 2.64129e-12 0 0.109996 5.64107e-11 0 0.117496 -7.61648e-12 0 
0.117496 7.72313e-11 0 0.117496 -1.10883e-10 0 0.117496 5.63112e-10 0 
0.117496 7.93333e-10 0 0.117496 5.84842e-10 0 0.117496 4.93523e-10 0 
0.117496 2.44807e-10 0 0.117496 1.41151e-09 0 0.117496 6.33575e-10 0 
0.117496 3.54774e-10 0 0.117496 5.26745e-10 0 0.117496 3.66879e-10 0 
0.117496 7.6761e-10 0 0.117496 2.35364e-10 0 0.117496 3.35148e-10 0 
0.117496 -2.67266e-10 0 0.117496 3.85928e-10 0 0.117496 3.38875e-11 0 
0.117496 6.03747e-11 0 0.122495 3.51875e-11 0 0.122495 1.6078e-10 0 
0.122495 -1.30684e-10 0 0.122495 5.16937e-10 0 0.122495 7.83211e-10 0 
0.122495 5.97687e-10 0 0.122495 4.8441e-10 0 0.122495 1.35689e-10 0 
0.122495 1.40709e-09 0 0.122495 6.64669e-10 0 0.122495 3.55208e-10 0 
0.122495 5.4639e-10 0 0.122495 3.89391e-10 0 0.122495 8.50851e-10 0 
0.122495 3.11582e-10 0 0.122495 4.37677e-10 0 0.122495 -2.44262e-10 0 
0.122495 4.39636e-10 0 0.122495 7.42667e-11 0 0.122495 6.82767e-11 0 
0.124995 8.10822e-11 0 0.124995 2.49383e-10 0 0.124995 -1.44544e-10 0 
0.124995 4.4467e-10 0 0.124995 7.41887e-10 0 0.124995 5.94602e-10 0 
0.124995 4.58484e-10 0 0.124995 1.64577e-11 0 0.124995 1.35574e-09 0 
0.124995 6.87009e-10 0 0.124995 3.61083e-10 0 0.124995 5.56811e-10 0 
0.124995 4.08561e-10 0 0.124995 9.22309e-10 0 0.124995 3.96307e-10 0 
0.124995 5.45727e-10 0 0.124995 -2.02971e-10 0 0.124995 4.80792e-10 0 
0.124995 1.19914e-10 0 0.124995 7.99909e-11 0 0.124995 1.23747e-10 0 
0.124995 3.32041e-10 0 0.124995 -1.51501e-10 0 0.124995 3.54857e-10 0 
0.124995 6.77096e-10 0 0.124995 5.75779e-10 0 0.124995 4.20935e-10 0 
0.124995 -9.71007e-11 0 0.124995 1.26772e-09 0 0.124995 7.01391e-10 0 
0.124995 3.72284e-10 0 0.124995 5.6015e-10 0 0.124995 4.23263e-10 0 
0.124995 9.7719e-10 0 0.124995 4.80827e-10 0 0.124995 6.48119e-10 0 
0.124995 -1.4942e-10 0 0.124995 5.05668e-10 0 0.124995 1.65887e-10 0 
0.124995 9.4165e-11 0 0.122495 1.57577e-10 0 0.122495 3.9784e-10 0 
0.122495 -1.51372e-10 0 0.122495 2.57747e-10 0 0.122495 5.97519e-10 0 
0.122495 5.42208e-10 0 0.122495 3.77076e-10 0 0.122495 -1.93225e-10 0 
0.122495 1.15136e-09 0 0.122495 7.06628e-10 0 0.122495 3.85961e-10 0 
0.122495 5.57169e-10 0 0.122495 4.30083e-10 0 0.122495 1.00926e-09 0 
0.122495 5.54404e-10 0 0.122495 7.32168e-10 0 0.122495 -9.00861e-11 0 
0.122495 5.12024e-10 0 0.122495 2.06739e-10 0 0.122495 1.08595e-10 0 
0.117496 1.78067e-10 0 0.117496 4.38094e-10 0 0.117496 -1.44745e-10 0 
0.117496 1.63772e-10 0 0.117496 5.11783e-10 0 0.117496 4.94915e-10 0 
0.117496 3.31486e-10 0 0.117496 -2.60404e-10 0 0.117496 1.01664e-09 0 
0.117496 6.99591e-10 0 0.117496 3.9664e-10 0 0.117496 5.47009e-10 0 
0.117496 4.25771e-10 0 0.117496 1.01198e-09 0 0.117496 6.06009e-10 0 
0.117496 7.85374e-10 0 0.117496 -3.17996e-11 0 0.117496 4.97544e-10 0 
0.117496 2.37429e-10 0 0.117496 1.2054e-10 0 0.109996 1.83073e-10 0 
0.109996 4.45851e-10 0 0.109996 -1.33811e-10 0 0.109996 8.24778e-11 0 
0.109996 4.27286e-10 0 0.109996 4.32858e-10 0 0.109996 2.86323e-10 0 
0.109996 -2.91527e-10 0 0.109996 8.73739e-10 0 0.109996 6.75658e-10 0 
0.109996 3.95902e-10 0 0.109996 5.27319e-10 0 0.109996 4.10552e-10 0 
0.109996 9.8072e-10 0 0.109996 6.25613e-10 0 0.109996 7.9714e-10 0 
0.109996 1.86127e-11 0 0.109996 4.65259e-10 0 0.109996 2.53012e-10 0 
0.109996 1.26888e-10 0 0.0999963 1.70544e-10 0 0.0999963 4.20468e-10 0 
0.0999963 -1.17067e-10 0 0.0999963 2.25624e-11 0 0.0999963 3.46548e-10 0 
0.0999963 3.60228e-10 0 0.0999963 2.45145e-10 0 0.0999963 -2.82711e-10 0 
0.0999963 7.27808e-10 0 0.0999963 6.30059e-10 0 0.0999963 3.80119e-10 0 
0.0999963 4.95934e-10 0 0.0999963 3.85311e-10 0 0.0999963 9.09837e-10 0 
0.0999963 6.07352e-10 0 0.0999963 7.6062e-10 0 0.0999963 5.86385e-11 0 
0.0999963 4.15977e-10 0 0.0999963 2.49703e-10 0 0.0999963 1.25253e-10 0 
0.0874969 1.44186e-10 0 0.0874969 3.5646e-10 0 0.0874969 -1.01446e-10 0 
0.0874969 -1.10334e-11 0 0.0874969 2.75805e-10 0 0.0874969 2.67952e-10 0 
0.0874969 2.02232e-10 0 0.0874969 -2.40531e-10 0 0.0874969 5.81583e-10 0 
0.0874969 5.55818e-10 0 0.0874969 3.35433e-10 0 0.0874969 4.47419e-10 0 
0.0874969 3.41889e-10 0 0.0874969 8.01661e-10 0 0.0874969 5.46125e-10 0 
0.0874969 6.71758e-10 0 0.0874969 8.21174e-11 0 0.0874969 3.5525e-10 0 
0.0874969 2.28756e-10 0 0.0874969 1.11773e-10 0 0.0724975 1.02973e-10 0 
0.0724975 2.7117e-10 0 0.0724975 -7.40446e-11 0 0.0724975 -1.92678e-11 0 
0.0724975 2.0255e-10 0 0.0724975 1.7011e-10 0 0.0724975 1.76156e-10 0 
0.0724975 -1.69138e-10 0 0.0724975 4.26708e-10 0 0.0724975 4.46848e-10 0 
0.0724975 2.67433e-10 0 0.0724975 3.84269e-10 0 0.0724975 2.7491e-10 0 
0.0724975 6.43767e-10 0 0.0724975 4.39172e-10 0 0.0724975 5.33988e-10 0 
0.0724975 9.50914e-11 0 0.0724975 2.79462e-10 0 0.0724975 1.85073e-10 0 
0.0724975 8.65113e-11 0 0.0549981 6.0376e-11 0 0.0549982 1.29515e-10 0 
0.0549982 -7.95207e-11 0 0.0549982 2.03342e-11 0 0.0549981 1.71521e-10 0 
0.0549982 4.90267e-11 0 0.0549982 7.99836e-11 0 0.0549982 -6.93975e-11 0 
0.0549981 3.30225e-10 0 0.0549981 3.37178e-10 0 0.0549982 1.70661e-10 0 
0.0549982 2.93615e-10 0 0.0549981 2.56353e-10 0 0.0549981 5.13934e-10 0 
0.0549981 3.47858e-10 0 0.0549982 3.67332e-10 0 0.0549982 9.5596e-11 0 
0.0549981 2.35221e-10 0 0.0549981 1.67366e-10 0 0.0549981 4.80028e-11 0 
0.0349989 1.75851e-12 0 0.0349989 9.71736e-11 0 0.0349989 2.43872e-11 0 
0.0349989 9.20342e-12 0 0.0349989 6.45669e-11 0 0.0349989 -2.56551e-14 0 
0.0349989 1.49243e-10 0 0.0349989 2.70446e-11 0 0.0349989 1.01574e-10 0 
0.0349989 1.76826e-10 0 0.0349989 9.56241e-11 0 0.0349989 2.38313e-10 0 
0.0349989 1.21514e-10 0 0.0349989 2.14924e-10 0 0.0349989 1.62904e-10 0 
0.0349989 1.799e-10 0 0.0349989 9.25856e-11 0 0.0349989 9.82314e-11 0 
0.0349989 5.16342e-11 0 0.0349989 3.08259e-12 0 0.0124996 3.94602e-12 0 
0.0124996 -2.58888e-11 0 0.0124996 -4.73252e-11 0 0.0124996 2.5416e-11 0 
0.0124996 4.83018e-11 0 0.0124996 -4.36046e-11 0 0.0124996 -4.7401e-11 0 
0.0124996 5.38702e-12 0 0.0124996 6.98739e-11 0 0.0124996 5.50719e-11 0 
0.0124996 -6.7219e-12 0 0.0124996 3.15332e-11 0 0.0124996 7.15899e-11 0 
0.0124996 1.04841e-10 0 0.0124996 7.14372e-11 0 0.0124996 3.15332e-11 0 
0.0124996 1.48252e-11 0 0.0124996 5.6273e-11 0 0.0124996 5.17268e-11 0 
0.0124996 -4.43801e-12 0 
POINT_DATA 882
FIELD FieldData 2
p 1 882 float
0.995504 0.95 0.9 0.85 0.8 0.75 0.7 0.65 0.6 
0.55 0.5 0.45 0.4 0.35 0.3 0.25 0.2 0.15 
0.1 0.05 0.00449584 1 0.95 0.9 0.85 0.8 0.75 
0.7 0.65 0.6 0.55 0.5 0.45 0.4 0.35 0.3 
0.25 0.2 0.15 0.1 0.05 0 1 0.95 0.9 
0.85 0.8 0.75 0.7 0.65 0.6 0.55 0.5 0.45 
0.4 0.35 0.3 0.25 0.2 0.15 0.1 0.05 0 
1 0.95 0.9 0.85 0.8 0.75 0.7 0.65 0.6 
0.55 0.5 0.45 0.4 0.35 0.3 0.25 0.2 0.15 
0.1 0.05 0 1 0.95 0.9 0.85 0.8 0.75 
0.7 0.65 0.6 0.55 0.5 0.45 0.4 0.35 0.3 
0.25 0.2 0.15 0.1 0.05 0 1 0.95 0.9 
0.85 0.8 0.75 0.7 0.65 0.6 0.55 0.5 0.45 
0.4 0.35 0.3 0.25 0.2 0.15 0.1 0.05 0 
1 0.95 0.9 0.85 0.8 0.75 0.7 0.65 0.6 
0.55 0.5 0.45 0.4 0.35 0.3 0.25 0.2 0.15 
0.1 0.05 0 1 0.95 0.9 0.85 0.8 0.75 
0.7 0.65 0.6 0.55 0.5 0.45 0.4 0.35 0.3 
0.25 0.2 0.15 0.1 0.05 0 1 0.95 0.9 
0.85 0.8 0.75 0.7 0.65 0.6 0.55 0.5 0.45 
0.4 0.35 0.3 0.25 0.2 0.15 0.1 0.05 0 
1 0.95 0.9 0.85 0.8 0.75 0.7 0.65 0.6 
0.55 0.5 0.45 0.4 0.35 0.3 0.25 0.2 0.15 
0.1 0.05 0 1 0.95 0.9 0.85 0.8 0.75 
0.7 0.65 0.6 0.55 0.5 0.45 0.4 0.35 0.3 
0.25 0.2 0.15 0.1 0.05 0 1 0.95 0.9 
0.85 0.8 0.75 0.7 0.65 0.6 0.55 0.5 0.45 
0.4 0.35 0.3 0.25 0.2 0.15 0.1 0.05 0 
1 0.95 0.9 0.85 0.8 0.75 0.7 0.65 0.6 
0.55 0.5 0.45 0.4 0.35 0.3 0.25 0.2 0.15 
0.1 0.05 0 1 0.95 0.9 0.85 0.8 0.75 
0.7 0.65 0.6 0.55 0.5 0.45 0.4 0.35 0.3 
0.25 0.2 0.15 0.1 0.05 0 1 0.95 0.9 
0.85 0.8 0.75 0.7 0.65 0.6 0.55 0.5 0.45 
0.4 0.35 0.3 0.25 0.2 0.15 0.1 0.05 0 
1 0.95 0.9 0.85 0.8 0.75 0.7 0.65 0.6 
0.55 0.5 0.45 0.4 0.35 0.3 0.25 0.2 0.15 
0.1 0.05 0 1 0.95 0.9 0.85 0.8 0.75 
0.7 0.65 0.6 0.55 0.5 0.45 0.4 0.35 0.3 
0.25 0.2 0.15 0.1 0.05 0 1 0.95 0.9 
0.85 0.8 0.75 0.7 0.65 0.6 0.55 0.5 0.45 
0.4 0.35 0.3 0.25 0.2 0.15 0.1 0.05 0 
1 0.95 0.9 0.85 0.8 0.75 0.7 0.65 0.6 
0.55 0.5 0.45 0.4 0.35 0.3 0.25 0.2 0.15 
0.1 0.05 0 1 0.95 0.9 0.85 0.8 0.75 
0.7 0.65 0.6 0.55 0.5 0.45 0.4 0.35 0.3 
0.25 0.2 0.15 0.1 0.05 0 0.995504 0.95 0.9 
0.85 0.8 0.75 0.7 0.65 0.6 0.55 0.5 0.45 
0.4 0.35 0.3 0.25 0.2 0.15 0.1 0.05 0.00449584 
0.995504 0.95 0.9 0.85 0.8 0.75 0.7 0.65 0.6 
0.55 0.5 0.45 0.4 0.35 0.3 0.25 0.2 0.15 
0.1 0.05 0.00449584 1 0.95 0.9 0.85 0.8 0.75 
0.7 0.65 0.6 0.55 0.5 0.45 0.4 0.35 0.3 
0.25 0.2 0.15 0.1 0.05 0 1 0.95 0.9 
0.85 0.8 0.75 0.7 0.65 0.6 0.55 0.5 0.45 
0.4 0.35 0.3 0.25 0.2 0.15 0.1 0.05 0 
1 0.95 0.9 0.85 0.8 0.75 0.7 0.65 0.6 
0.55 0.5 0.45 0.4 0.35 0.3 0.25 0.2 0.15 
0.1 0.05 0 1 0.95 0.9 0.85 0.8 0.75 
0.7 0.65 0.6 0.55 0.5 0.45 0.4 0.35 0.3 
0.25 0.2 0.15 0.1 0.05 0 1 0.95 0.9 
0.85 0.8 0.75 0.7 0.65 0.6 0.55 0.5 0.45 
0.4 0.35 0.3 0.25 0.2 0.15 0.1 0.05 0 
1 0.95 0.9 0.85 0.8 0.75 0.7 0.65 0.6 
0.55 0.5 0.45 0.4 0.35 0.3 0.25 0.2 0.15 
0.1 0.05 0 1 0.95 0.9 0.85 0.8 0.75 
0.7 0.65 0.6 0.55 0.5 0.45 0.4 0.35 0.3 
0.25 0.2 0.15 0.1 0.05 0 1 0.95 0.9 
0.85 0.8 0.75 0.7 0.65 0.6 0.55 0.5 0.45 
0.4 0.35 0.3 0.25 0.2 0.15 0.1 0.05 0 
1 0.95 0.9 0.85 0.8 0.75 0.7 0.65 0.6 
0.55 0.5 0.45 0.4 0.35 0.3 0.25 0.2 0.15 
0.1 0.05 0 1 0.95 0.9 0.85 0.8 0.75 
0.7 0.65 0.6 0.55 0.5 0.45 0.4 0.35 0.3 
0.25 0.2 0.15 0.1 0.05 0 1 0.95 0.9 
0.85 0.8 0.75 0.7 0.65 0.6 0.55 0.5 0.45 
0.4 0.35 0.3 0.25 0.2 0.15 0.1 0.05 0 
1 0.95 0.9 0.85 0.8 0.75 0.7 0.65 0.6 
0.55 0.5 0.45 0.4 0.35 0.3 0.25 0.2 0.15 
0.1 0.05 0 1 0.95 0.9 0.85 0.8 0.75 
0.7 0.65 0.6 0.55 0.5 0.45 0.4 0.35 0.3 
0.25 0.2 0.15 0.1 0.05 0 1 0.95 0.9 
0.85 0.8 0.75 0.7 0.65 0.6 0.55 0.5 0.45 
0.4 0.35 0.3 0.25 0.2 0.15 0.1 0.05 0 
1 0.95 0.9 0.85 0.8 0.75 0.7 0.65 0.6 
0.55 0.5 0.45 0.4 0.35 0.3 0.25 0.2 0.15 
0.1 0.05 0 1 0.95 0.9 0.85 0.8 0.75 
0.7 0.65 0.6 0.55 0.5 0.45 0.4 0.35 0.3 
0.25 0.2 0.15 0.1 0.05 0 1 0.95 0.9 
0.85 0.8 0.75 0.7 0.65 0.6 0.55 0.5 0.45 
0.4 0.35 0.3 0.25 0.2 0.15 0.1 0.05 0 
1 0.95 0.9 0.85 0.8 0.75 0.7 0.65 0.6 
0.55 0.5 0.45 0.4 0.35 0.3 0.25 0.2 0.15 
0.1 0.05 0 1 0.95 0.9 0.85 0.8 0.75 
0.7 0.65 0.6 0.55 0.5 0.45 0.4 0.35 0.3 
0.25 0.2 0.15 0.1 0.05 0 0.995504 0.95 0.9 
0.85 0.8 0.75 0.7 0.65 0.6 0.55 0.5 0.45 
0.4 0.35 0.3 0.25 0.2 0.15 0.1 0.05 0.00449584 

U 3 882 float
0.0102518 2.67085e-11 0 0 0 0 0 0 0 
0 0 0 0 0 0 0 0 0 
0 0 0 0 0 0 0 0 0 
0 0 0 0 0 0 0 0 0 
0 0 0 0 0 0 0 0 0 
0 0 0 0 0 0 0 0 0 
0 0 0 0 0 0 0.0102518 1.43377e-11 0 
0.0237493 4.3606e-12 0 0.0237493 4.8743e-12 0 0.0237493 1.69713e-11 0 
0.0237493 4.47943e-11 0 0.0237493 5.89894e-11 0 0.0237493 9.91907e-11 0 
0.0237493 1.0899e-10 0 0.0237493 8.24423e-11 0 0.0237493 1.22722e-10 0 
0.0237493 1.27008e-10 0 0.0237493 1.17737e-10 0 0.0237493 9.65269e-11 0 
0.0237493 5.77493e-11 0 0.0237493 5.79186e-11 0 0.0237493 4.07961e-11 0 
0.0237493 2.98994e-11 0 0.0237493 5.10387e-12 0 0.0237493 -1.82152e-11 0 
0.0237493 -1.25948e-11 0 0.0237493 8.48796e-12 0 0.0237493 2.85656e-11 0 
0.0449985 -9.26305e-12 0 0.0449985 -8.50727e-12 0 0.0449985 1.59787e-11 0 
0.0449985 1.07677e-10 0 0.0449985 1.74677e-10 0 0.0449985 2.1873e-10 0 
0.0449985 2.19664e-10 0 0.0449985 1.87624e-10 0 0.0449985 3.00352e-10 0 
0.0449985 3.02382e-10 0 0.0449985 2.29054e-10 0 0.0449985 2.0209e-10 0 
0.0449985 1.42809e-10 0 0.0449985 1.45007e-10 0 0.0449985 1.0053e-10 0 
0.0449985 5.4373e-11 0 0.0449985 1.79558e-12 0 0.0449985 -2.24081e-11 0 
0.0449985 -5.06526e-12 0 0.0449985 1.24489e-11 0 0.0449985 4.85029e-11 0 
0.0637478 -2.36063e-11 0 0.0637478 -2.13115e-11 0 0.0637478 -9.76405e-12 0 
0.0637479 1.4967e-10 0 0.0637478 3.29885e-10 0 0.0637478 3.63113e-10 0 
0.0637478 3.18222e-10 0 0.0637479 2.69903e-10 0 0.0637478 4.80765e-10 0 
0.0637478 5.14189e-10 0 0.0637478 3.28471e-10 0 0.0637479 2.78685e-10 0 
0.0637479 2.0968e-10 0 0.0637479 2.29823e-10 0 0.0637479 1.74344e-10 0 
0.0637479 7.30288e-11 0 0.0637479 -3.19927e-11 0 0.0637479 -3.94892e-11 0 
0.0637479 1.64636e-11 0 0.0637479 1.54483e-11 0 0.0637479 5.75759e-11 0 
0.0799972 -5.64616e-11 0 0.0799972 -5.34747e-11 0 0.0799972 -3.52982e-11 0 
0.0799972 2.03686e-10 0 0.0799972 4.6664e-10 0 0.0799972 4.60406e-10 0 
0.0799972 3.81992e-10 0 0.0799972 3.44479e-10 0 0.0799972 6.42714e-10 0 
0.0799972 6.77438e-10 0 0.0799972 3.72696e-10 0 0.0799972 3.3569e-10 0 
0.0799972 2.88062e-10 0 0.0799972 3.2186e-10 0 0.0799972 2.40454e-10 0 
0.0799972 9.08967e-11 0 0.0799972 -4.0577e-11 0 0.0799972 -2.02528e-11 0 
0.0799972 5.64504e-11 0 0.0799972 1.30348e-11 0 0.0799972 5.77174e-11 0 
0.0937466 -5.99015e-11 0 0.0937466 -5.21537e-11 0 0.0937466 -4.60922e-11 0 